
     Program PWSCF v.6.8 starts on 26Nov2021 at  6:32:37 

     This program is part of the open-source Quantum ESPRESSO suite
     for quantum simulation of materials; please cite
         "P. Giannozzi et al., J. Phys.:Condens. Matter 21 395502 (2009);
         "P. Giannozzi et al., J. Phys.:Condens. Matter 29 465901 (2017);
         "P. Giannozzi et al., J. Chem. Phys. 152 154105 (2020);
          URL http://www.quantum-espresso.org", 
     in publications or presentations arising from this work. More details at
     http://www.quantum-espresso.org/quote

     Parallel version (MPI), running on     4 processors

     MPI processes distributed on     1 nodes
     R & G space division:  proc/nbgrp/npool/nimage =       4
     8102 MiB available memory on the printing compute node when the environment starts
 
     Waiting for input...
     Reading input from standard input

     Current dimensions of program PWSCF are:
     Max number of different atomic species (ntypx) = 10
     Max number of k-points (npk) =  40000
     Max angular momentum in pseudopotentials (lmaxx) =  4
 end of file reached, tag PP_GIPAW_ORBITALS not found
 end of file reached, closing tag not found
 end of file reached, tag PP_GIPAW_VLOCAL not found
 end of file reached, closing tag not found
 end of file reached, closing tag not found
     file Sb.pbe-n-rrkjus_psl.1.0.0.UPF: wavefunction(s)  5S renormalized
     Message from routine setup:
     using ibrav=0 with symmetry is DISCOURAGED, use correct ibrav instead

     Subspace diagonalization in iterative solution of the eigenvalue problem:
     one sub-group per band group will be used
     scalapack distributed-memory algorithm (size of sub-group:  2*  2 procs)

 
     Parallelization info
     --------------------
     sticks:   dense  smooth     PW     G-vecs:    dense   smooth      PW
     Min         850     418    124                32608    11463    1779
     Max         851     419    126                32612    11467    1781
     Sum        3403    1675    499               130437    45863    7119
 
     Using Slab Decomposition
 

     Title: 
     Li3Sb                                                                      


     bravais-lattice index     =            0
     lattice parameter (alat)  =       8.7681  a.u.
     unit-cell volume          =     476.6465 (a.u.)^3
     number of atoms/cell      =            4
     number of atomic types    =            2
     number of electrons       =        14.00
     number of Kohn-Sham states=           16
     kinetic-energy cutoff     =      80.0000  Ry
     charge density cutoff     =     640.0000  Ry
     scf convergence threshold =      1.0E-08
     mixing beta               =       0.7000
     number of iterations used =            8  plain     mixing
     energy convergence thresh.=      1.0E-06
     force convergence thresh. =      1.0E-05
     press convergence thresh. =      1.0E-01
     Exchange-correlation= PBE
                           (   1   4   3   4   0   0   0)
     nstep                     =           50


     celldm(1)=   8.768066  celldm(2)=   0.000000  celldm(3)=   0.000000
     celldm(4)=   0.000000  celldm(5)=   0.000000  celldm(6)=   0.000000

     crystal axes: (cart. coord. in units of alat)
               a(1) = (   0.707107   0.000000   0.707107 )  
               a(2) = (   0.707107   0.707107   0.000000 )  
               a(3) = (   0.000000   0.707107   0.707107 )  

     reciprocal axes: (cart. coord. in units 2 pi/alat)
               b(1) = (  0.707107 -0.707107  0.707107 )  
               b(2) = (  0.707107  0.707107 -0.707107 )  
               b(3) = ( -0.707107  0.707107  0.707107 )  


     PseudoPot. # 1 for Li read from file:
     /home/rajeshprashanth/pseudo/Li.pbe-sl-rrkjus_psl.1.0.0.UPF
     MD5 check sum: 0e11565407bfb6e9e22218db3032bef3
     Pseudo is Ultrasoft, Zval =  3.0
     Generated using &quot;atomic&quot; code by A. Dal Corso  v.6.3MaX
     Using radial grid of 1017 points,  4 beta functions with: 
                l(1) =   0
                l(2) =   0
                l(3) =   1
                l(4) =   1
     Q(r) pseudized with 0 coefficients 


     PseudoPot. # 2 for Sb read from file:
     /home/rajeshprashanth/pseudo/Sb.pbe-n-rrkjus_psl.1.0.0.UPF
     MD5 check sum: 281bbf571873a5188dff0d70b91cdad0
     Pseudo is Ultrasoft + core correction, Zval =  5.0
     Generated using &quot;atomic&quot; code by A. Dal Corso  v.6.3MaX
     Using radial grid of 1243 points,  6 beta functions with: 
                l(1) =   0
                l(2) =   0
                l(3) =   1
                l(4) =   1
                l(5) =   2
                l(6) =   2
     Q(r) pseudized with 0 coefficients 


     atomic species   valence    mass     pseudopotential
        Li             3.00     6.94100     Li( 1.00)
        Sb             5.00   121.76000     Sb( 1.00)

     48 Sym. Ops., with inversion, found


                                    s                        frac. trans.

      isym =  1     identity                                     

 cryst.   s( 1) = (     1          0          0      )
                  (     0          1          0      )
                  (     0          0          1      )

 cart.    s( 1) = (  1.0000000  0.0000000  0.0000000 )
                  (  0.0000000  1.0000000  0.0000000 )
                  (  0.0000000  0.0000000  1.0000000 )


      isym =  2     180 deg rotation - cart. axis [0,0,1]        

 cryst.   s( 2) = (     0         -1          1      )
                  (     0         -1          0      )
                  (     1         -1          0      )

 cart.    s( 2) = ( -1.0000000  0.0000000  0.0000000 )
                  (  0.0000000 -1.0000000  0.0000000 )
                  (  0.0000000  0.0000000  1.0000000 )


      isym =  3     180 deg rotation - cart. axis [0,1,0]        

 cryst.   s( 3) = (    -1          0          0      )
                  (    -1          0          1      )
                  (    -1          1          0      )

 cart.    s( 3) = ( -1.0000000  0.0000000  0.0000000 )
                  (  0.0000000  1.0000000  0.0000000 )
                  (  0.0000000  0.0000000 -1.0000000 )


      isym =  4     180 deg rotation - cart. axis [1,0,0]        

 cryst.   s( 4) = (     0          1         -1      )
                  (     1          0         -1      )
                  (     0          0         -1      )

 cart.    s( 4) = (  1.0000000  0.0000000  0.0000000 )
                  (  0.0000000 -1.0000000  0.0000000 )
                  (  0.0000000  0.0000000 -1.0000000 )


      isym =  5     180 deg rotation - cart. axis [1,1,0]        

 cryst.   s( 5) = (    -1          1          0      )
                  (     0          1          0      )
                  (     0          1         -1      )

 cart.    s( 5) = (  0.0000000  1.0000000  0.0000000 )
                  (  1.0000000  0.0000000  0.0000000 )
                  (  0.0000000  0.0000000 -1.0000000 )


      isym =  6     180 deg rotation - cart. axis [1,-1,0]       

 cryst.   s( 6) = (     0          0         -1      )
                  (     0         -1          0      )
                  (    -1          0          0      )

 cart.    s( 6) = (  0.0000000 -1.0000000  0.0000000 )
                  ( -1.0000000  0.0000000  0.0000000 )
                  (  0.0000000  0.0000000 -1.0000000 )


      isym =  7      90 deg rotation - cart. axis [0,0,-1]       

 cryst.   s( 7) = (     1         -1          0      )
                  (     1          0         -1      )
                  (     1          0          0      )

 cart.    s( 7) = (  0.0000000  1.0000000  0.0000000 )
                  ( -1.0000000  0.0000000  0.0000000 )
                  (  0.0000000  0.0000000  1.0000000 )


      isym =  8      90 deg rotation - cart. axis [0,0,1]        

 cryst.   s( 8) = (     0          0          1      )
                  (    -1          0          1      )
                  (     0         -1          1      )

 cart.    s( 8) = (  0.0000000 -1.0000000  0.0000000 )
                  (  1.0000000  0.0000000  0.0000000 )
                  (  0.0000000  0.0000000  1.0000000 )


      isym =  9     180 deg rotation - cart. axis [1,0,1]        

 cryst.   s( 9) = (     1          0          0      )
                  (     1         -1          0      )
                  (     1          0         -1      )

 cart.    s( 9) = (  0.0000000  0.0000000  1.0000000 )
                  (  0.0000000 -1.0000000  0.0000000 )
                  (  1.0000000  0.0000000  0.0000000 )


      isym = 10     180 deg rotation - cart. axis [-1,0,1]       

 cryst.   s(10) = (    -1          0          0      )
                  (     0          0         -1      )
                  (     0         -1          0      )

 cart.    s(10) = (  0.0000000  0.0000000 -1.0000000 )
                  (  0.0000000 -1.0000000  0.0000000 )
                  ( -1.0000000  0.0000000  0.0000000 )


      isym = 11      90 deg rotation - cart. axis [0,1,0]        

 cryst.   s(11) = (     0          1         -1      )
                  (    -1          1          0      )
                  (     0          1          0      )

 cart.    s(11) = (  0.0000000  0.0000000  1.0000000 )
                  (  0.0000000  1.0000000  0.0000000 )
                  ( -1.0000000  0.0000000  0.0000000 )


      isym = 12      90 deg rotation - cart. axis [0,-1,0]       

 cryst.   s(12) = (     0         -1          1      )
                  (     0          0          1      )
                  (    -1          0          1      )

 cart.    s(12) = (  0.0000000  0.0000000 -1.0000000 )
                  (  0.0000000  1.0000000  0.0000000 )
                  (  1.0000000  0.0000000  0.0000000 )


      isym = 13     180 deg rotation - cart. axis [0,1,1]        

 cryst.   s(13) = (    -1          0          1      )
                  (     0         -1          1      )
                  (     0          0          1      )

 cart.    s(13) = ( -1.0000000  0.0000000  0.0000000 )
                  (  0.0000000  0.0000000  1.0000000 )
                  (  0.0000000  1.0000000  0.0000000 )


      isym = 14     180 deg rotation - cart. axis [0,1,-1]       

 cryst.   s(14) = (     0         -1          0      )
                  (    -1          0          0      )
                  (     0          0         -1      )

 cart.    s(14) = ( -1.0000000  0.0000000  0.0000000 )
                  (  0.0000000  0.0000000 -1.0000000 )
                  (  0.0000000 -1.0000000  0.0000000 )


      isym = 15      90 deg rotation - cart. axis [-1,0,0]       

 cryst.   s(15) = (     0          1          0      )
                  (     0          1         -1      )
                  (    -1          1          0      )

 cart.    s(15) = (  1.0000000  0.0000000  0.0000000 )
                  (  0.0000000  0.0000000  1.0000000 )
                  (  0.0000000 -1.0000000  0.0000000 )


      isym = 16      90 deg rotation - cart. axis [1,0,0]        

 cryst.   s(16) = (     1          0         -1      )
                  (     1          0          0      )
                  (     1         -1          0      )

 cart.    s(16) = (  1.0000000  0.0000000  0.0000000 )
                  (  0.0000000  0.0000000 -1.0000000 )
                  (  0.0000000  1.0000000  0.0000000 )


      isym = 17     120 deg rotation - cart. axis [-1,-1,-1]     

 cryst.   s(17) = (     0          0          1      )
                  (     1          0          0      )
                  (     0          1          0      )

 cart.    s(17) = (  0.0000000  1.0000000  0.0000000 )
                  (  0.0000000  0.0000000  1.0000000 )
                  (  1.0000000  0.0000000  0.0000000 )


      isym = 18     120 deg rotation - cart. axis [-1,1,1]       

 cryst.   s(18) = (    -1          1          0      )
                  (    -1          0          0      )
                  (    -1          0          1      )

 cart.    s(18) = (  0.0000000 -1.0000000  0.0000000 )
                  (  0.0000000  0.0000000  1.0000000 )
                  ( -1.0000000  0.0000000  0.0000000 )


      isym = 19     120 deg rotation - cart. axis [1,1,-1]       

 cryst.   s(19) = (     0          0         -1      )
                  (     0          1         -1      )
                  (     1          0         -1      )

 cart.    s(19) = (  0.0000000  1.0000000  0.0000000 )
                  (  0.0000000  0.0000000 -1.0000000 )
                  ( -1.0000000  0.0000000  0.0000000 )


      isym = 20     120 deg rotation - cart. axis [1,-1,1]       

 cryst.   s(20) = (     1         -1          0      )
                  (     0         -1          1      )
                  (     0         -1          0      )

 cart.    s(20) = (  0.0000000 -1.0000000  0.0000000 )
                  (  0.0000000  0.0000000 -1.0000000 )
                  (  1.0000000  0.0000000  0.0000000 )


      isym = 21     120 deg rotation - cart. axis [1,1,1]        

 cryst.   s(21) = (     0          1          0      )
                  (     0          0          1      )
                  (     1          0          0      )

 cart.    s(21) = (  0.0000000  0.0000000  1.0000000 )
                  (  1.0000000  0.0000000  0.0000000 )
                  (  0.0000000  1.0000000  0.0000000 )


      isym = 22     120 deg rotation - cart. axis [-1,1,-1]      

 cryst.   s(22) = (     1          0         -1      )
                  (     0          0         -1      )
                  (     0          1         -1      )

 cart.    s(22) = (  0.0000000  0.0000000  1.0000000 )
                  ( -1.0000000  0.0000000  0.0000000 )
                  (  0.0000000 -1.0000000  0.0000000 )


      isym = 23     120 deg rotation - cart. axis [1,-1,-1]      

 cryst.   s(23) = (     0         -1          0      )
                  (     1         -1          0      )
                  (     0         -1          1      )

 cart.    s(23) = (  0.0000000  0.0000000 -1.0000000 )
                  ( -1.0000000  0.0000000  0.0000000 )
                  (  0.0000000  1.0000000  0.0000000 )


      isym = 24     120 deg rotation - cart. axis [-1,-1,1]      

 cryst.   s(24) = (    -1          0          1      )
                  (    -1          1          0      )
                  (    -1          0          0      )

 cart.    s(24) = (  0.0000000  0.0000000 -1.0000000 )
                  (  1.0000000  0.0000000  0.0000000 )
                  (  0.0000000 -1.0000000  0.0000000 )


      isym = 25     inversion                                    

 cryst.   s(25) = (    -1          0          0      )
                  (     0         -1          0      )
                  (     0          0         -1      )

 cart.    s(25) = ( -1.0000000  0.0000000  0.0000000 )
                  (  0.0000000 -1.0000000  0.0000000 )
                  (  0.0000000  0.0000000 -1.0000000 )


      isym = 26     inv. 180 deg rotation - cart. axis [0,0,1]   

 cryst.   s(26) = (     0          1         -1      )
                  (     0          1          0      )
                  (    -1          1          0      )

 cart.    s(26) = (  1.0000000  0.0000000  0.0000000 )
                  (  0.0000000  1.0000000  0.0000000 )
                  (  0.0000000  0.0000000 -1.0000000 )


      isym = 27     inv. 180 deg rotation - cart. axis [0,1,0]   

 cryst.   s(27) = (     1          0          0      )
                  (     1          0         -1      )
                  (     1         -1          0      )

 cart.    s(27) = (  1.0000000  0.0000000  0.0000000 )
                  (  0.0000000 -1.0000000  0.0000000 )
                  (  0.0000000  0.0000000  1.0000000 )


      isym = 28     inv. 180 deg rotation - cart. axis [1,0,0]   

 cryst.   s(28) = (     0         -1          1      )
                  (    -1          0          1      )
                  (     0          0          1      )

 cart.    s(28) = ( -1.0000000  0.0000000  0.0000000 )
                  (  0.0000000  1.0000000  0.0000000 )
                  (  0.0000000  0.0000000  1.0000000 )


      isym = 29     inv. 180 deg rotation - cart. axis [1,1,0]   

 cryst.   s(29) = (     1         -1          0      )
                  (     0         -1          0      )
                  (     0         -1          1      )

 cart.    s(29) = (  0.0000000 -1.0000000  0.0000000 )
                  ( -1.0000000  0.0000000  0.0000000 )
                  (  0.0000000  0.0000000  1.0000000 )


      isym = 30     inv. 180 deg rotation - cart. axis [1,-1,0]  

 cryst.   s(30) = (     0          0          1      )
                  (     0          1          0      )
                  (     1          0          0      )

 cart.    s(30) = (  0.0000000  1.0000000  0.0000000 )
                  (  1.0000000  0.0000000  0.0000000 )
                  (  0.0000000  0.0000000  1.0000000 )


      isym = 31     inv.  90 deg rotation - cart. axis [0,0,-1]  

 cryst.   s(31) = (    -1          1          0      )
                  (    -1          0          1      )
                  (    -1          0          0      )

 cart.    s(31) = (  0.0000000 -1.0000000  0.0000000 )
                  (  1.0000000  0.0000000  0.0000000 )
                  (  0.0000000  0.0000000 -1.0000000 )


      isym = 32     inv.  90 deg rotation - cart. axis [0,0,1]   

 cryst.   s(32) = (     0          0         -1      )
                  (     1          0         -1      )
                  (     0          1         -1      )

 cart.    s(32) = (  0.0000000  1.0000000  0.0000000 )
                  ( -1.0000000  0.0000000  0.0000000 )
                  (  0.0000000  0.0000000 -1.0000000 )


      isym = 33     inv. 180 deg rotation - cart. axis [1,0,1]   

 cryst.   s(33) = (    -1          0          0      )
                  (    -1          1          0      )
                  (    -1          0          1      )

 cart.    s(33) = (  0.0000000  0.0000000 -1.0000000 )
                  (  0.0000000  1.0000000  0.0000000 )
                  ( -1.0000000  0.0000000  0.0000000 )


      isym = 34     inv. 180 deg rotation - cart. axis [-1,0,1]  

 cryst.   s(34) = (     1          0          0      )
                  (     0          0          1      )
                  (     0          1          0      )

 cart.    s(34) = (  0.0000000  0.0000000  1.0000000 )
                  (  0.0000000  1.0000000  0.0000000 )
                  (  1.0000000  0.0000000  0.0000000 )


      isym = 35     inv.  90 deg rotation - cart. axis [0,1,0]   

 cryst.   s(35) = (     0         -1          1      )
                  (     1         -1          0      )
                  (     0         -1          0      )

 cart.    s(35) = (  0.0000000  0.0000000 -1.0000000 )
                  (  0.0000000 -1.0000000  0.0000000 )
                  (  1.0000000  0.0000000  0.0000000 )


      isym = 36     inv.  90 deg rotation - cart. axis [0,-1,0]  

 cryst.   s(36) = (     0          1         -1      )
                  (     0          0         -1      )
                  (     1          0         -1      )

 cart.    s(36) = (  0.0000000  0.0000000  1.0000000 )
                  (  0.0000000 -1.0000000  0.0000000 )
                  ( -1.0000000  0.0000000  0.0000000 )


      isym = 37     inv. 180 deg rotation - cart. axis [0,1,1]   

 cryst.   s(37) = (     1          0         -1      )
                  (     0          1         -1      )
                  (     0          0         -1      )

 cart.    s(37) = (  1.0000000  0.0000000  0.0000000 )
                  (  0.0000000  0.0000000 -1.0000000 )
                  (  0.0000000 -1.0000000  0.0000000 )


      isym = 38     inv. 180 deg rotation - cart. axis [0,1,-1]  

 cryst.   s(38) = (     0          1          0      )
                  (     1          0          0      )
                  (     0          0          1      )

 cart.    s(38) = (  1.0000000  0.0000000  0.0000000 )
                  (  0.0000000  0.0000000  1.0000000 )
                  (  0.0000000  1.0000000  0.0000000 )


      isym = 39     inv.  90 deg rotation - cart. axis [-1,0,0]  

 cryst.   s(39) = (     0         -1          0      )
                  (     0         -1          1      )
                  (     1         -1          0      )

 cart.    s(39) = ( -1.0000000  0.0000000  0.0000000 )
                  (  0.0000000  0.0000000 -1.0000000 )
                  (  0.0000000  1.0000000  0.0000000 )


      isym = 40     inv.  90 deg rotation - cart. axis [1,0,0]   

 cryst.   s(40) = (    -1          0          1      )
                  (    -1          0          0      )
                  (    -1          1          0      )

 cart.    s(40) = ( -1.0000000  0.0000000  0.0000000 )
                  (  0.0000000  0.0000000  1.0000000 )
                  (  0.0000000 -1.0000000  0.0000000 )


      isym = 41     inv. 120 deg rotation - cart. axis [-1,-1,-1]

 cryst.   s(41) = (     0          0         -1      )
                  (    -1          0          0      )
                  (     0         -1          0      )

 cart.    s(41) = (  0.0000000 -1.0000000  0.0000000 )
                  (  0.0000000  0.0000000 -1.0000000 )
                  ( -1.0000000  0.0000000  0.0000000 )


      isym = 42     inv. 120 deg rotation - cart. axis [-1,1,1]  

 cryst.   s(42) = (     1         -1          0      )
                  (     1          0          0      )
                  (     1          0         -1      )

 cart.    s(42) = (  0.0000000  1.0000000  0.0000000 )
                  (  0.0000000  0.0000000 -1.0000000 )
                  (  1.0000000  0.0000000  0.0000000 )


      isym = 43     inv. 120 deg rotation - cart. axis [1,1,-1]  

 cryst.   s(43) = (     0          0          1      )
                  (     0         -1          1      )
                  (    -1          0          1      )

 cart.    s(43) = (  0.0000000 -1.0000000  0.0000000 )
                  (  0.0000000  0.0000000  1.0000000 )
                  (  1.0000000  0.0000000  0.0000000 )


      isym = 44     inv. 120 deg rotation - cart. axis [1,-1,1]  

 cryst.   s(44) = (    -1          1          0      )
                  (     0          1         -1      )
                  (     0          1          0      )

 cart.    s(44) = (  0.0000000  1.0000000  0.0000000 )
                  (  0.0000000  0.0000000  1.0000000 )
                  ( -1.0000000  0.0000000  0.0000000 )


      isym = 45     inv. 120 deg rotation - cart. axis [1,1,1]   

 cryst.   s(45) = (     0         -1          0      )
                  (     0          0         -1      )
                  (    -1          0          0      )

 cart.    s(45) = (  0.0000000  0.0000000 -1.0000000 )
                  ( -1.0000000  0.0000000  0.0000000 )
                  (  0.0000000 -1.0000000  0.0000000 )


      isym = 46     inv. 120 deg rotation - cart. axis [-1,1,-1] 

 cryst.   s(46) = (    -1          0          1      )
                  (     0          0          1      )
                  (     0         -1          1      )

 cart.    s(46) = (  0.0000000  0.0000000 -1.0000000 )
                  (  1.0000000  0.0000000  0.0000000 )
                  (  0.0000000  1.0000000  0.0000000 )


      isym = 47     inv. 120 deg rotation - cart. axis [1,-1,-1] 

 cryst.   s(47) = (     0          1          0      )
                  (    -1          1          0      )
                  (     0          1         -1      )

 cart.    s(47) = (  0.0000000  0.0000000  1.0000000 )
                  (  1.0000000  0.0000000  0.0000000 )
                  (  0.0000000 -1.0000000  0.0000000 )


      isym = 48     inv. 120 deg rotation - cart. axis [-1,-1,1] 

 cryst.   s(48) = (     1          0         -1      )
                  (     1         -1          0      )
                  (     1          0          0      )

 cart.    s(48) = (  0.0000000  0.0000000  1.0000000 )
                  ( -1.0000000  0.0000000  0.0000000 )
                  (  0.0000000  1.0000000  0.0000000 )


   Cartesian axes

     site n.     atom                  positions (alat units)
         1           Li  tau(   1) = (   0.7071068   0.7071068   0.7071068  )
         2           Li  tau(   2) = (   1.0606602   1.0606602   1.0606602  )
         3           Li  tau(   3) = (   0.3535534   0.3535534   0.3535534  )
         4           Sb  tau(   4) = (   0.0000000   0.0000000   0.0000000  )

   Crystallographic axes

     site n.     atom                  positions (cryst. coord.)
         1           Li  tau(   1) = (  0.5000000  0.5000000  0.5000000  )
         2           Li  tau(   2) = (  0.7500000  0.7500000  0.7500000  )
         3           Li  tau(   3) = (  0.2500000  0.2500000  0.2500000  )
         4           Sb  tau(   4) = (  0.0000000  0.0000000  0.0000000  )

     number of k points=    20  Marzari-Vanderbilt smearing, width (Ry)=  0.0200
                       cart. coord. in units 2pi/alat
        k(    1) = (   0.0000000   0.0000000   0.0000000), wk =   0.0058309
        k(    2) = (  -0.1010153   0.1010153   0.1010153), wk =   0.0466472
        k(    3) = (  -0.2020305   0.2020305   0.2020305), wk =   0.0466472
        k(    4) = (  -0.3030458   0.3030458   0.3030458), wk =   0.0466472
        k(    5) = (   0.0000000   0.2020305   0.0000000), wk =   0.0349854
        k(    6) = (  -0.1010153   0.3030458   0.1010153), wk =   0.1399417
        k(    7) = (  -0.2020305   0.4040610   0.2020305), wk =   0.1399417
        k(    8) = (   0.4040610  -0.2020305  -0.4040610), wk =   0.1399417
        k(    9) = (   0.3030458  -0.1010153  -0.3030458), wk =   0.1399417
        k(   10) = (   0.2020305  -0.0000000  -0.2020305), wk =   0.0699708
        k(   11) = (   0.0000000   0.4040610   0.0000000), wk =   0.0349854
        k(   12) = (  -0.1010153   0.5050763   0.1010153), wk =   0.1399417
        k(   13) = (   0.5050763  -0.1010153  -0.5050763), wk =   0.1399417
        k(   14) = (   0.4040610   0.0000000  -0.4040610), wk =   0.0699708
        k(   15) = (   0.0000000   0.6060915   0.0000000), wk =   0.0349854
        k(   16) = (   0.6060915   0.0000000  -0.6060915), wk =   0.0699708
        k(   17) = (   0.0000000   0.4040610   0.2020305), wk =   0.1399417
        k(   18) = (   0.6060915  -0.2020305  -0.4040610), wk =   0.2798834
        k(   19) = (   0.7071068  -0.1010153  -0.5050763), wk =   0.1399417
        k(   20) = (   0.6060915   0.0000000  -0.4040610), wk =   0.1399417

                       cryst. coord.
        k(    1) = (   0.0000000   0.0000000   0.0000000), wk =   0.0058309
        k(    2) = (   0.0000000   0.0000000   0.1428571), wk =   0.0466472
        k(    3) = (   0.0000000   0.0000000   0.2857143), wk =   0.0466472
        k(    4) = (   0.0000000   0.0000000   0.4285714), wk =   0.0466472
        k(    5) = (   0.0000000   0.1428571   0.1428571), wk =   0.0349854
        k(    6) = (   0.0000000   0.1428571   0.2857143), wk =   0.1399417
        k(    7) = (   0.0000000   0.1428571   0.4285714), wk =   0.1399417
        k(    8) = (   0.0000000   0.1428571  -0.4285714), wk =   0.1399417
        k(    9) = (   0.0000000   0.1428571  -0.2857143), wk =   0.1399417
        k(   10) = (   0.0000000   0.1428571  -0.1428571), wk =   0.0699708
        k(   11) = (   0.0000000   0.2857143   0.2857143), wk =   0.0349854
        k(   12) = (   0.0000000   0.2857143   0.4285714), wk =   0.1399417
        k(   13) = (   0.0000000   0.2857143  -0.4285714), wk =   0.1399417
        k(   14) = (   0.0000000   0.2857143  -0.2857143), wk =   0.0699708
        k(   15) = (   0.0000000   0.4285714   0.4285714), wk =   0.0349854
        k(   16) = (   0.0000000   0.4285714  -0.4285714), wk =   0.0699708
        k(   17) = (   0.1428571   0.2857143   0.4285714), wk =   0.1399417
        k(   18) = (   0.1428571   0.2857143  -0.4285714), wk =   0.2798834
        k(   19) = (   0.1428571   0.4285714  -0.4285714), wk =   0.1399417
        k(   20) = (   0.1428571   0.4285714  -0.2857143), wk =   0.1399417

     Dense  grid:   130437 G-vectors     FFT dimensions: (  72,  72,  72)

     Smooth grid:    45863 G-vectors     FFT dimensions: (  50,  50,  50)

     Dynamical RAM for                 wfc:       0.35 MB

     Dynamical RAM for     wfc (w. buffer):       7.38 MB

     Dynamical RAM for           str. fact:       1.00 MB

     Dynamical RAM for           local pot:       0.00 MB

     Dynamical RAM for          nlocal pot:       0.92 MB

     Dynamical RAM for                qrad:       8.12 MB

     Dynamical RAM for          rho,v,vnew:       3.63 MB

     Dynamical RAM for               rhoin:       1.21 MB

     Dynamical RAM for            rho*nmix:       7.96 MB

     Dynamical RAM for           G-vectors:       1.95 MB

     Dynamical RAM for          h,s,v(r/c):       0.00 MB

     Dynamical RAM for          <psi|beta>:       0.01 MB

     Dynamical RAM for      wfcinit/wfcrot:       0.84 MB

     Dynamical RAM for           addusdens:      94.05 MB

     Dynamical RAM for          addusforce:      96.30 MB

     Dynamical RAM for         addusstress:     100.02 MB

     Estimated static dynamical RAM per process >      29.26 MB

     Estimated max dynamical RAM per process >     137.24 MB

     Estimated total dynamical RAM >     548.96 MB

     Initial potential from superposition of free atoms

     starting charge   13.98555, renormalised to   14.00000
     Starting wfcs are   19 randomized atomic wfcs

     total cpu time spent up to now is        1.5 secs

     Self-consistent Calculation

     iteration #  1     ecut=    80.00 Ry     beta= 0.70
     CG style diagonalization

---- Real-time Memory Report at c_bands before calling an iterative solver
           202 MiB given to the printing process from OS
             0 MiB allocation reported by mallinfo(arena+hblkhd)
          7916 MiB available memory on the node where the printing process lives
------------------
     ethr =  1.00E-02,  avg # of iterations =  4.0

     Threshold (ethr) on eigenvalues was too large:
     Diagonalizing with lowered threshold

     CG style diagonalization

---- Real-time Memory Report at c_bands before calling an iterative solver
           237 MiB given to the printing process from OS
             0 MiB allocation reported by mallinfo(arena+hblkhd)
          7802 MiB available memory on the node where the printing process lives
------------------
     ethr =  2.81E-04,  avg # of iterations =  4.7

     total cpu time spent up to now is        4.9 secs

     WARNING: integrated charge=    14.00086251, expected=    14.00000000

     total energy              =     -64.61094189 Ry
     estimated scf accuracy    <       0.02340871 Ry

     iteration #  2     ecut=    80.00 Ry     beta= 0.70
     CG style diagonalization

---- Real-time Memory Report at c_bands before calling an iterative solver
           237 MiB given to the printing process from OS
             0 MiB allocation reported by mallinfo(arena+hblkhd)
          7776 MiB available memory on the node where the printing process lives
------------------
     ethr =  1.67E-04,  avg # of iterations =  3.8

     total cpu time spent up to now is        6.4 secs

     WARNING: integrated charge=    14.00545053, expected=    14.00000000

     total energy              =     -64.61686112 Ry
     estimated scf accuracy    <       0.00408703 Ry

     iteration #  3     ecut=    80.00 Ry     beta= 0.70
     CG style diagonalization

---- Real-time Memory Report at c_bands before calling an iterative solver
           239 MiB given to the printing process from OS
             0 MiB allocation reported by mallinfo(arena+hblkhd)
          7771 MiB available memory on the node where the printing process lives
------------------
     ethr =  2.92E-05,  avg # of iterations =  5.3

     total cpu time spent up to now is        8.3 secs

     WARNING: integrated charge=    14.00466547, expected=    14.00000000

     total energy              =     -64.62081289 Ry
     estimated scf accuracy    <       0.00018122 Ry

     iteration #  4     ecut=    80.00 Ry     beta= 0.70
     CG style diagonalization

---- Real-time Memory Report at c_bands before calling an iterative solver
           239 MiB given to the printing process from OS
             0 MiB allocation reported by mallinfo(arena+hblkhd)
          7787 MiB available memory on the node where the printing process lives
------------------
     ethr =  1.29E-06,  avg # of iterations =  8.5

     total cpu time spent up to now is       11.2 secs

     WARNING: integrated charge=    14.00419686, expected=    14.00000000

     total energy              =     -64.62161617 Ry
     estimated scf accuracy    <       0.00003305 Ry

     iteration #  5     ecut=    80.00 Ry     beta= 0.70
     CG style diagonalization

---- Real-time Memory Report at c_bands before calling an iterative solver
           240 MiB given to the printing process from OS
             0 MiB allocation reported by mallinfo(arena+hblkhd)
          7773 MiB available memory on the node where the printing process lives
------------------
     ethr =  2.36E-07,  avg # of iterations =  4.5

     total cpu time spent up to now is       12.9 secs

     WARNING: integrated charge=    14.00396589, expected=    14.00000000

     total energy              =     -64.62155781 Ry
     estimated scf accuracy    <       0.00002208 Ry

     iteration #  6     ecut=    80.00 Ry     beta= 0.70
     CG style diagonalization

---- Real-time Memory Report at c_bands before calling an iterative solver
           240 MiB given to the printing process from OS
             0 MiB allocation reported by mallinfo(arena+hblkhd)
          7766 MiB available memory on the node where the printing process lives
------------------
     ethr =  1.58E-07,  avg # of iterations =  3.4

     total cpu time spent up to now is       14.3 secs

     WARNING: integrated charge=    14.00411229, expected=    14.00000000

     total energy              =     -64.62167682 Ry
     estimated scf accuracy    <       0.00000113 Ry

     iteration #  7     ecut=    80.00 Ry     beta= 0.70
     CG style diagonalization

---- Real-time Memory Report at c_bands before calling an iterative solver
           241 MiB given to the printing process from OS
             0 MiB allocation reported by mallinfo(arena+hblkhd)
          7787 MiB available memory on the node where the printing process lives
------------------
     ethr =  8.04E-09,  avg # of iterations =  5.8

     total cpu time spent up to now is       16.4 secs

     WARNING: integrated charge=    14.00412577, expected=    14.00000000

     total energy              =     -64.62166625 Ry
     estimated scf accuracy    <       0.00000101 Ry

     iteration #  8     ecut=    80.00 Ry     beta= 0.70
     CG style diagonalization

---- Real-time Memory Report at c_bands before calling an iterative solver
           241 MiB given to the printing process from OS
             0 MiB allocation reported by mallinfo(arena+hblkhd)
          7783 MiB available memory on the node where the printing process lives
------------------
     ethr =  7.23E-09,  avg # of iterations =  3.3

     total cpu time spent up to now is       17.8 secs

     WARNING: integrated charge=    14.00407340, expected=    14.00000000

     total energy              =     -64.62166034 Ry
     estimated scf accuracy    <       0.00000187 Ry

     iteration #  9     ecut=    80.00 Ry     beta= 0.70
     CG style diagonalization

---- Real-time Memory Report at c_bands before calling an iterative solver
           241 MiB given to the printing process from OS
             0 MiB allocation reported by mallinfo(arena+hblkhd)
          7778 MiB available memory on the node where the printing process lives
------------------
     ethr =  7.23E-09,  avg # of iterations =  3.0

     total cpu time spent up to now is       19.2 secs

     WARNING: integrated charge=    14.00407170, expected=    14.00000000

     total energy              =     -64.62167103 Ry
     estimated scf accuracy    <       0.00000030 Ry

     iteration # 10     ecut=    80.00 Ry     beta= 0.70
     CG style diagonalization

---- Real-time Memory Report at c_bands before calling an iterative solver
           242 MiB given to the printing process from OS
             0 MiB allocation reported by mallinfo(arena+hblkhd)
          7775 MiB available memory on the node where the printing process lives
------------------
     ethr =  2.11E-09,  avg # of iterations =  3.3

     total cpu time spent up to now is       20.8 secs

     WARNING: integrated charge=    14.00404489, expected=    14.00000000

     total energy              =     -64.62167235 Ry
     estimated scf accuracy    <       0.00000019 Ry

     iteration # 11     ecut=    80.00 Ry     beta= 0.70
     CG style diagonalization

---- Real-time Memory Report at c_bands before calling an iterative solver
           242 MiB given to the printing process from OS
             0 MiB allocation reported by mallinfo(arena+hblkhd)
          7776 MiB available memory on the node where the printing process lives
------------------
     ethr =  1.32E-09,  avg # of iterations =  3.4

     total cpu time spent up to now is       22.1 secs

     WARNING: integrated charge=    14.00405934, expected=    14.00000000

     total energy              =     -64.62167884 Ry
     estimated scf accuracy    <       0.00000001 Ry

     iteration # 12     ecut=    80.00 Ry     beta= 0.70
     CG style diagonalization

---- Real-time Memory Report at c_bands before calling an iterative solver
           242 MiB given to the printing process from OS
             0 MiB allocation reported by mallinfo(arena+hblkhd)
          7773 MiB available memory on the node where the printing process lives
------------------
     ethr =  8.00E-11,  avg # of iterations =  5.7

     total cpu time spent up to now is       24.1 secs

     WARNING: integrated charge=    14.00405570, expected=    14.00000000

     total energy              =     -64.62167558 Ry
     estimated scf accuracy    <       0.00000002 Ry

     iteration # 13     ecut=    80.00 Ry     beta= 0.70
     CG style diagonalization

---- Real-time Memory Report at c_bands before calling an iterative solver
           242 MiB given to the printing process from OS
             0 MiB allocation reported by mallinfo(arena+hblkhd)
          7771 MiB available memory on the node where the printing process lives
------------------
     ethr =  8.00E-11,  avg # of iterations =  3.2

     total cpu time spent up to now is       25.4 secs

     End of self-consistent calculation

          k = 0.0000 0.0000 0.0000 (  5769 PWs)   bands (ev):

   -42.9291 -42.0567 -42.0483  -5.2634   4.0099   4.0099   4.0099   6.2670
     6.9748   6.9748   6.9748   9.0226   9.0227   9.0227  11.2012  13.0199

     occupation numbers 
     1.0000   1.0000   1.0000   1.0000   1.0346   1.0346   1.0346   0.0000
     0.0000   0.0000   0.0000   0.0000   0.0000   0.0000   0.0000   0.0000

          k =-0.1010 0.1010 0.1010 (  5775 PWs)   bands (ev):

   -42.9291 -42.0563 -42.0487  -5.1592   2.8077   3.8333   3.8333   6.4864
     7.2510   7.2510   8.0409   8.4604   8.4606   9.4132  12.4907  13.2358

     occupation numbers 
     1.0000   1.0000   1.0000   1.0000   1.0000   1.0046   1.0046   0.0000
     0.0000   0.0000   0.0000   0.0000   0.0000   0.0000   0.0000   0.0000

          k =-0.2020 0.2020 0.2020 (  5762 PWs)   bands (ev):

   -42.9289 -42.0552 -42.0498  -4.8922   1.2741   3.5508   3.5508   6.3992
     6.8006   6.8007   9.2685   9.2685   9.2917  10.9240  14.0972  14.8856

     occupation numbers 
     1.0000   1.0000   1.0000   1.0000   1.0000   1.0000   1.0000   0.0000
     0.0000   0.0000   0.0000   0.0000   0.0000   0.0000   0.0000   0.0000

          k =-0.3030 0.3030 0.3030 (  5738 PWs)   bands (ev):

   -42.9288 -42.0535 -42.0515  -4.6302   0.3344   3.3902   3.3902   6.2936
     6.2936   6.3285   9.7929  11.1149  11.1150  12.6509  13.4766  13.4777

     occupation numbers 
     1.0000   1.0000   1.0000   1.0000   1.0000   1.0000   1.0000   0.0000
     0.0000   0.0000   0.0000   0.0000   0.0000   0.0000   0.0000   0.0000

          k = 0.0000 0.2020 0.0000 (  5785 PWs)   bands (ev):

   -42.9290 -42.0562 -42.0488  -5.1238   3.1214   3.3440   3.3440   6.9818
     7.0189   7.6883   7.8512   7.8513   9.6461   9.6462  11.4684  13.2799

     occupation numbers 
     1.0000   1.0000   1.0000   1.0000   1.0000   1.0000   1.0000   0.0000
     0.0000   0.0000   0.0000   0.0000   0.0000   0.0000   0.0000   0.0000

          k =-0.1010 0.3030 0.1010 (  5784 PWs)   bands (ev):

   -42.9289 -42.0554 -42.0496  -4.9076   1.7545   2.9549   3.2122   6.3911
     7.3708   7.5830   7.9650   9.4154  10.2636  10.8056  13.0435  13.8338

     occupation numbers 
     1.0000   1.0000   1.0000   1.0000   1.0000   1.0000   1.0000   0.0000
     0.0000   0.0000   0.0000   0.0000   0.0000   0.0000   0.0000   0.0000

          k =-0.2020 0.4041 0.2020 (  5754 PWs)   bands (ev):

   -42.9288 -42.0540 -42.0510  -4.6306   0.6558   2.8338   2.8560   6.0659
     7.3215   7.3225   8.9137  10.2338  11.8668  12.5949  13.2425  13.9037

     occupation numbers 
     1.0000   1.0000   1.0000   1.0000   1.0000   1.0000   1.0000   0.0000
     0.0000   0.0000   0.0000   0.0000   0.0000   0.0000   0.0000   0.0000

          k = 0.4041-0.2020-0.4041 (  5751 PWs)   bands (ev):

   -42.9287 -42.0528 -42.0522  -4.5307   0.3455   2.5110   3.0694   6.1096
     6.8776   7.3700  10.2358  10.7723  10.9564  12.1061  14.0823  14.2144

     occupation numbers 
     1.0000   1.0000   1.0000   1.0000   1.0000   1.0000   1.0000   0.0000
     0.0000   0.0000   0.0000   0.0000   0.0000   0.0000   0.0000   0.0000

          k = 0.3030-0.1010-0.3030 (  5757 PWs)   bands (ev):

   -42.9288 -42.0544 -42.0506  -4.7208   0.9530   2.4509   3.5146   6.3751
     6.8646   7.6146   8.7930   9.4131  10.8947  12.4319  13.3372  14.6529

     occupation numbers 
     1.0000   1.0000   1.0000   1.0000   1.0000   1.0000   1.0000   0.0000
     0.0000   0.0000   0.0000   0.0000   0.0000   0.0000   0.0000   0.0000

          k = 0.2020-0.0000-0.2020 (  5779 PWs)   bands (ev):

   -42.9290 -42.0557 -42.0493  -4.9986   2.0711   2.8440   3.9265   6.6061
     7.3555   7.5145   7.9883   8.1256  10.0830  10.2008  12.9152  13.6297

     occupation numbers 
     1.0000   1.0000   1.0000   1.0000   1.0000   1.0000   1.0151   0.0000
     0.0000   0.0000   0.0000   0.0000   0.0000   0.0000   0.0000   0.0000

          k = 0.0000 0.4041 0.0000 (  5750 PWs)   bands (ev):

   -42.9288 -42.0551 -42.0499  -4.7583   1.7844   2.4401   2.4401   5.5623
     6.9958   9.1692   9.1692   9.6795  11.7048  11.7048  12.2691  13.9736

     occupation numbers 
     1.0000   1.0000   1.0000   1.0000   1.0000   1.0000   1.0000   0.0000
     0.0000   0.0000   0.0000   0.0000   0.0000   0.0000   0.0000   0.0000

          k =-0.1010 0.5051 0.1010 (  5752 PWs)   bands (ev):

   -42.9287 -42.0543 -42.0508  -4.5271   1.0346   2.0165   2.2450   5.4127
     7.4325   9.0921   9.2170  11.0983  12.9346  13.1413  13.3635  13.7224

     occupation numbers 
     1.0000   1.0000   1.0000   1.0000   1.0000   1.0000   1.0000   0.0000
     0.0000   0.0000   0.0000   0.0000   0.0000   0.0000   0.0000   0.0000

          k = 0.5051-0.1010-0.5051 (  5757 PWs)   bands (ev):

   -42.9287 -42.0530 -42.0520  -4.3937   0.6941   1.4947   2.4129   5.6734
     8.5127   8.7392   9.1643  10.8739  11.2267  12.3766  14.3424  14.9930

     occupation numbers 
     1.0000   1.0000   1.0000   1.0000   1.0000   1.0000   1.0000   0.0000
     0.0000   0.0000   0.0000   0.0000   0.0000   0.0000   0.0000   0.0000

          k = 0.4041 0.0000-0.4041 (  5774 PWs)   bands (ev):

   -42.9287 -42.0533 -42.0517  -4.4930   0.8355   1.4766   2.9065   6.0219
     7.8822   8.7723   9.1217   9.9541  10.8412  11.8331  14.7016  15.3322

     occupation numbers 
     1.0000   1.0000   1.0000   1.0000   1.0000   1.0000   1.0000   0.0000
     0.0000   0.0000   0.0000   0.0000   0.0000   0.0000   0.0000   0.0000

          k = 0.0000 0.6061 0.0000 (  5758 PWs)   bands (ev):

   -42.9287 -42.0542 -42.0508  -4.3852   0.8188   1.9328   1.9328   4.7972
     7.0054  10.5690  10.5690  12.0831  13.1496  13.1496  13.5757  14.7153

     occupation numbers 
     1.0000   1.0000   1.0000   1.0000   1.0000   1.0000   1.0000   0.0550
     0.0000   0.0000   0.0000   0.0000   0.0000   0.0000   0.0000   0.0000

          k = 0.6061 0.0000-0.6061 (  5756 PWs)   bands (ev):

   -42.9286 -42.0537 -42.0513  -4.3218   0.7641   1.4973   1.9924   5.0951
     7.4251  10.2053  10.5092  11.6623  11.9948  12.9179  14.5735  15.0050

     occupation numbers 
     1.0000   1.0000   1.0000   1.0000   1.0000   1.0000   1.0000   0.0005
     0.0000   0.0000   0.0000   0.0000   0.0000   0.0000   0.0000   0.0000

          k = 0.0000 0.4041 0.2020 (  5770 PWs)   bands (ev):

   -42.9288 -42.0545 -42.0505  -4.6789   1.2360   2.0807   2.9102   6.2732
     7.3555   7.7197   9.3658   9.3692  11.5803  12.6540  13.3148  14.5830

     occupation numbers 
     1.0000   1.0000   1.0000   1.0000   1.0000   1.0000   1.0000   0.0000
     0.0000   0.0000   0.0000   0.0000   0.0000   0.0000   0.0000   0.0000

          k = 0.6061-0.2020-0.4041 (  5762 PWs)   bands (ev):

   -42.9287 -42.0532 -42.0518  -4.4627   0.6711   1.8099   2.4812   6.5121
     6.9637   8.9025   9.2122  10.7842  10.9581  12.4795  13.9530  14.8162

     occupation numbers 
     1.0000   1.0000   1.0000   1.0000   1.0000   1.0000   1.0000   0.0000
     0.0000   0.0000   0.0000   0.0000   0.0000   0.0000   0.0000   0.0000

          k = 0.7071-0.1010-0.5051 (  5742 PWs)   bands (ev):

   -42.9287 -42.0536 -42.0514  -4.3680   0.8759   1.6300   1.8174   5.6814
     7.7395   8.6359  10.8159  11.1785  11.6817  13.3529  13.6945  14.5938

     occupation numbers 
     1.0000   1.0000   1.0000   1.0000   1.0000   1.0000   1.0000   0.0000
     0.0000   0.0000   0.0000   0.0000   0.0000   0.0000   0.0000   0.0000

          k = 0.6061 0.0000-0.4041 (  5750 PWs)   bands (ev):

   -42.9286 -42.0527 -42.0523  -4.3375   1.0447   1.1010   1.9319   6.3355
     7.8027   8.9233   9.5332  10.8634  11.4580  12.9272  14.0179  14.7673

     occupation numbers 
     1.0000   1.0000   1.0000   1.0000   1.0000   1.0000   1.0000   0.0000
     0.0000   0.0000   0.0000   0.0000   0.0000   0.0000   0.0000   0.0000

     the Fermi energy is     4.5755 ev

     WARNING: integrated charge=    14.00405510, expected=    14.00000000

!    total energy              =     -64.62167661 Ry
     estimated scf accuracy    <          3.2E-09 Ry
     smearing contrib. (-TS)   =       0.00006754 Ry
     internal energy E=F+TS    =     -64.62174414 Ry

     The total energy is F=E-TS. E is the sum of the following terms:
     one-electron contribution =     -23.44181582 Ry
     hartree contribution      =      11.68313163 Ry
     xc contribution           =     -23.20916541 Ry
     ewald contribution        =     -29.65389454 Ry

     convergence has been achieved in  13 iterations

     Forces acting on atoms (cartesian axes, Ry/au):

     atom    1 type  1   force =     0.00000000    0.00000000    0.00000000
     atom    2 type  1   force =     0.00000000    0.00000000    0.00000000
     atom    3 type  1   force =     0.00000000    0.00000000    0.00000000
     atom    4 type  2   force =     0.00000000   -0.00000000   -0.00000000
     The non-local contrib.  to forces
     atom    1 type  1   force =     0.00000000   -0.00000000   -0.00000000
     atom    2 type  1   force =    -0.00000000    0.00000000    0.00000000
     atom    3 type  1   force =     0.00000000    0.00000000    0.00000000
     atom    4 type  2   force =    -0.00000000    0.00000000    0.00000000
     The ionic contribution  to forces
     atom    1 type  1   force =    -0.00000000   -0.00000000   -0.00000000
     atom    2 type  1   force =     0.00000000    0.00000000    0.00000000
     atom    3 type  1   force =    -0.00000000   -0.00000000   -0.00000000
     atom    4 type  2   force =     0.00000000    0.00000000    0.00000000
     The local contribution  to forces
     atom    1 type  1   force =    -0.00000000   -0.00000000   -0.00000000
     atom    2 type  1   force =    -0.00000000   -0.00000000   -0.00000000
     atom    3 type  1   force =    -0.00000000   -0.00000000   -0.00000000
     atom    4 type  2   force =     0.00000000   -0.00000000    0.00000000
     The core correction contribution to forces
     atom    1 type  1   force =     0.00000000    0.00000000    0.00000000
     atom    2 type  1   force =     0.00000000    0.00000000    0.00000000
     atom    3 type  1   force =     0.00000000    0.00000000    0.00000000
     atom    4 type  2   force =    -0.00000000   -0.00000000   -0.00000000
     The Hubbard contrib.    to forces
     atom    1 type  1   force =     0.00000000    0.00000000    0.00000000
     atom    2 type  1   force =     0.00000000    0.00000000    0.00000000
     atom    3 type  1   force =     0.00000000    0.00000000    0.00000000
     atom    4 type  2   force =     0.00000000    0.00000000    0.00000000
     The SCF correction term to forces
     atom    1 type  1   force =     0.00000000    0.00000000    0.00000000
     atom    2 type  1   force =    -0.00000000    0.00000000    0.00000000
     atom    3 type  1   force =    -0.00000000   -0.00000000    0.00000000
     atom    4 type  2   force =     0.00000000   -0.00000000   -0.00000000

     Total force =     0.000000     Total SCF correction =     0.000000


     Computing stress (Cartesian axis) and pressure

          total   stress  (Ry/bohr**3)                   (kbar)     P=       -0.69
  -0.00000471   0.00000000   0.00000000           -0.69        0.00        0.00
   0.00000000  -0.00000471   0.00000000            0.00       -0.69        0.00
   0.00000000   0.00000000  -0.00000471            0.00        0.00       -0.69

     kinetic stress (kbar)   2905.50     -0.00     -0.00
                               -0.00   2905.50     -0.00
                               -0.00     -0.00   2905.50

     local   stress (kbar)   -625.34     -0.00     -0.00
                               -0.00   -625.34     -0.00
                               -0.00     -0.00   -625.34

     nonloc. stress (kbar)   1142.20      0.00      0.00
                                0.00   1142.20      0.00
                                0.00      0.00   1142.20

     hartree stress (kbar)   1201.90     -0.00      0.00
                               -0.00   1201.90     -0.00
                                0.00     -0.00   1201.90

     exc-cor stress (kbar)   1325.67     -0.00     -0.00
                               -0.00   1325.67      0.00
                               -0.00      0.00   1325.67

     corecor stress (kbar)  -2899.97     -0.00     -0.00
                               -0.00  -2899.97      0.00
                               -0.00      0.00  -2899.97

     ewald   stress (kbar)  -3050.65     -0.00      0.00
                               -0.00  -3050.65     -0.00
                                0.00     -0.00  -3050.65

     hubbard stress (kbar)      0.00      0.00      0.00
                                0.00      0.00      0.00
                                0.00      0.00      0.00

     DFT-D   stress (kbar)      0.00      0.00      0.00
                                0.00      0.00      0.00
                                0.00      0.00      0.00

     XDM     stress (kbar)      0.00      0.00      0.00
                                0.00      0.00      0.00
                                0.00      0.00      0.00

     dft-nl  stress (kbar)      0.00      0.00      0.00
                                0.00      0.00      0.00
                                0.00      0.00      0.00

     TS-vdW  stress (kbar)      0.00      0.00      0.00
                                0.00      0.00      0.00
                                0.00      0.00      0.00


                                0.00      0.00      0.00
                                0.00      0.00      0.00


                                0.00      0.00      0.00


     BFGS Geometry Optimization
     Energy error            =      0.0E+00 Ry
     Gradient error          =      1.9E-31 Ry/Bohr
     Cell gradient error     =      6.9E-01 kbar

     number of scf cycles    =   1
     number of bfgs steps    =   0

     enthalpy           new  =     -64.6216766077 Ry

     new trust radius        =       0.0005140398 bohr
     new conv_thr            =       0.0000000100 Ry

     new unit-cell volume =    476.47822 a.u.^3 (    70.60679 Ang^3 )
     density =      3.35328 g/cm^3

CELL_PARAMETERS (angstrom)
   3.280490759   0.000000000   3.280490759
   3.280490759   3.280490759   0.000000000
   0.000000000   3.280490759   3.280490759

ATOMIC_POSITIONS (crystal)
Li            0.5000000000        0.5000000000        0.5000000000
Li            0.7500000000        0.7500000000        0.7500000000
Li            0.2500000000        0.2500000000        0.2500000000
Sb            0.0000000000        0.0000000000       -0.0000000000



     Writing output data file ./Li3Sb/pwscf.save/
     NEW-OLD atomic charge density approx. for the potential
     extrapolated charge   13.99911, renormalised to   14.00000

     total cpu time spent up to now is       29.1 secs

     Self-consistent Calculation

     iteration #  1     ecut=    80.00 Ry     beta= 0.70
     CG style diagonalization

---- Real-time Memory Report at c_bands before calling an iterative solver
           249 MiB given to the printing process from OS
             0 MiB allocation reported by mallinfo(arena+hblkhd)
          7747 MiB available memory on the node where the printing process lives
------------------
     ethr =  1.00E-06,  avg # of iterations =  2.0

     Threshold (ethr) on eigenvalues was too large:
     Diagonalizing with lowered threshold

     CG style diagonalization

---- Real-time Memory Report at c_bands before calling an iterative solver
           249 MiB given to the printing process from OS
             0 MiB allocation reported by mallinfo(arena+hblkhd)
          7745 MiB available memory on the node where the printing process lives
------------------
     ethr =  9.82E-09,  avg # of iterations =  2.0

     total cpu time spent up to now is       31.0 secs

     WARNING: integrated charge=    14.00283749, expected=    14.00000000

     total energy              =     -64.62167771 Ry
     estimated scf accuracy    <       0.00000136 Ry

     iteration #  2     ecut=    80.00 Ry     beta= 0.70
     CG style diagonalization

---- Real-time Memory Report at c_bands before calling an iterative solver
           249 MiB given to the printing process from OS
             0 MiB allocation reported by mallinfo(arena+hblkhd)
          7753 MiB available memory on the node where the printing process lives
------------------
     ethr =  9.74E-09,  avg # of iterations =  3.0

     total cpu time spent up to now is       32.3 secs

     WARNING: integrated charge=    14.00390285, expected=    14.00000000

     total energy              =     -64.62167566 Ry
     estimated scf accuracy    <       0.00000010 Ry

     iteration #  3     ecut=    80.00 Ry     beta= 0.70
     CG style diagonalization

---- Real-time Memory Report at c_bands before calling an iterative solver
           249 MiB given to the printing process from OS
             0 MiB allocation reported by mallinfo(arena+hblkhd)
          7750 MiB available memory on the node where the printing process lives
------------------
     ethr =  7.44E-10,  avg # of iterations =  3.8

     total cpu time spent up to now is       33.7 secs

     End of self-consistent calculation

          k = 0.0000 0.0000 0.0000 (  5769 PWs)   bands (ev):

   -42.9242 -42.0524 -42.0439  -5.2621   4.0124   4.0124   4.0124   6.2718
     6.9774   6.9774   6.9774   9.0259   9.0259   9.0260  11.2046  13.0248

     occupation numbers 
     1.0000   1.0000   1.0000   1.0000   1.0346   1.0346   1.0346   0.0000
     0.0000   0.0000   0.0000   0.0000   0.0000   0.0000   0.0000   0.0000

          k =-0.1010 0.1010 0.1010 (  5775 PWs)   bands (ev):

   -42.9241 -42.0520 -42.0444  -5.1579   2.8100   3.8357   3.8357   6.4904
     7.2538   7.2538   8.0446   8.4635   8.4636   9.4165  12.4945  13.2409

     occupation numbers 
     1.0000   1.0000   1.0000   1.0000   1.0000   1.0046   1.0046   0.0000
     0.0000   0.0000   0.0000   0.0000   0.0000   0.0000   0.0000   0.0000

          k =-0.2021 0.2021 0.2021 (  5762 PWs)   bands (ev):

   -42.9240 -42.0509 -42.0455  -4.8908   1.2759   3.5531   3.5531   6.4030
     6.8032   6.8033   9.2717   9.2717   9.2958  10.9284  14.1021  14.8900

     occupation numbers 
     1.0000   1.0000   1.0000   1.0000   1.0000   1.0000   1.0000   0.0000
     0.0000   0.0000   0.0000   0.0000   0.0000   0.0000   0.0000   0.0000

          k =-0.3031 0.3031 0.3031 (  5738 PWs)   bands (ev):

   -42.9239 -42.0492 -42.0472  -4.6287   0.3359   3.3924   3.3924   6.2961
     6.2961   6.3322   9.7972  11.1187  11.1187  12.6560  13.4809  13.4820

     occupation numbers 
     1.0000   1.0000   1.0000   1.0000   1.0000   1.0000   1.0000   0.0000
     0.0000   0.0000   0.0000   0.0000   0.0000   0.0000   0.0000   0.0000

          k = 0.0000 0.2021 0.0000 (  5785 PWs)   bands (ev):

   -42.9241 -42.0519 -42.0445  -5.1225   3.1240   3.3462   3.3462   6.9845
     7.0227   7.6921   7.8543   7.8544   9.6495   9.6496  11.4719  13.2850

     occupation numbers 
     1.0000   1.0000   1.0000   1.0000   1.0000   1.0000   1.0000   0.0000
     0.0000   0.0000   0.0000   0.0000   0.0000   0.0000   0.0000   0.0000

          k =-0.1010 0.3031 0.1010 (  5784 PWs)   bands (ev):

   -42.9240 -42.0511 -42.0453  -4.9062   1.7565   2.9569   3.2145   6.3940
     7.3741   7.5862   7.9681   9.4194  10.2671  10.8095  13.0475  13.8387

     occupation numbers 
     1.0000   1.0000   1.0000   1.0000   1.0000   1.0000   1.0000   0.0000
     0.0000   0.0000   0.0000   0.0000   0.0000   0.0000   0.0000   0.0000

          k =-0.2021 0.4041 0.2021 (  5754 PWs)   bands (ev):

   -42.9239 -42.0497 -42.0467  -4.6290   0.6574   2.8359   2.8580   6.0687
     7.3252   7.3254   8.9171  10.2380  11.8707  12.5997  13.2468  13.9086

     occupation numbers 
     1.0000   1.0000   1.0000   1.0000   1.0000   1.0000   1.0000   0.0000
     0.0000   0.0000   0.0000   0.0000   0.0000   0.0000   0.0000   0.0000

          k = 0.4041-0.2021-0.4041 (  5751 PWs)   bands (ev):

   -42.9238 -42.0485 -42.0479  -4.5291   0.3470   2.5130   3.0715   6.1125
     6.8804   7.3736  10.2401  10.7760  10.9603  12.1106  14.0867  14.2195

     occupation numbers 
     1.0000   1.0000   1.0000   1.0000   1.0000   1.0000   1.0000   0.0000
     0.0000   0.0000   0.0000   0.0000   0.0000   0.0000   0.0000   0.0000

          k = 0.3031-0.1010-0.3031 (  5757 PWs)   bands (ev):

   -42.9239 -42.0501 -42.0463  -4.7193   0.9547   2.4528   3.5169   6.3782
     6.8672   7.6182   8.7961   9.4172  10.8986  12.4365  13.3417  14.6577

     occupation numbers 
     1.0000   1.0000   1.0000   1.0000   1.0000   1.0000   1.0000   0.0000
     0.0000   0.0000   0.0000   0.0000   0.0000   0.0000   0.0000   0.0000

          k = 0.2021-0.0000-0.2021 (  5779 PWs)   bands (ev):

   -42.9240 -42.0514 -42.0450  -4.9973   2.0732   2.8460   3.9290   6.6096
     7.3582   7.5172   7.9921   8.1290  10.0865  10.2045  12.9193  13.6346

     occupation numbers 
     1.0000   1.0000   1.0000   1.0000   1.0000   1.0000   1.0150   0.0000
     0.0000   0.0000   0.0000   0.0000   0.0000   0.0000   0.0000   0.0000

          k = 0.0000 0.4041 0.0000 (  5750 PWs)   bands (ev):

   -42.9239 -42.0508 -42.0456  -4.7568   1.7865   2.4419   2.4419   5.5651
     6.9987   9.1728   9.1728   9.6843  11.7085  11.7086  12.2727  13.9784

     occupation numbers 
     1.0000   1.0000   1.0000   1.0000   1.0000   1.0000   1.0000   0.0000
     0.0000   0.0000   0.0000   0.0000   0.0000   0.0000   0.0000   0.0000

          k =-0.1010 0.5051 0.1010 (  5752 PWs)   bands (ev):

   -42.9238 -42.0500 -42.0465  -4.5255   1.0363   2.0183   2.2468   5.4156
     7.4356   9.0956   9.2210  11.1030  12.9388  13.1458  13.3677  13.7271

     occupation numbers 
     1.0000   1.0000   1.0000   1.0000   1.0000   1.0000   1.0000   0.0000
     0.0000   0.0000   0.0000   0.0000   0.0000   0.0000   0.0000   0.0000

          k = 0.5051-0.1010-0.5051 (  5757 PWs)   bands (ev):

   -42.9237 -42.0487 -42.0477  -4.3920   0.6956   1.4964   2.4147   5.6764
     8.5160   8.7426   9.1684  10.8775  11.2313  12.3809  14.3472  14.9977

     occupation numbers 
     1.0000   1.0000   1.0000   1.0000   1.0000   1.0000   1.0000   0.0000
     0.0000   0.0000   0.0000   0.0000   0.0000   0.0000   0.0000   0.0000

          k = 0.4041 0.0000-0.4041 (  5774 PWs)   bands (ev):

   -42.9238 -42.0490 -42.0474  -4.4914   0.8371   1.4783   2.9085   6.0248
     7.8854   8.7764   9.1248   9.9582  10.8452  11.8372  14.7065  15.3374

     occupation numbers 
     1.0000   1.0000   1.0000   1.0000   1.0000   1.0000   1.0000   0.0000
     0.0000   0.0000   0.0000   0.0000   0.0000   0.0000   0.0000   0.0000

          k = 0.0000 0.6062 0.0000 (  5758 PWs)   bands (ev):

   -42.9237 -42.0499 -42.0465  -4.3835   0.8204   1.9345   1.9345   4.8001
     7.0085  10.5731  10.5731  12.0884  13.1540  13.1540  13.5795  14.7199

     occupation numbers 
     1.0000   1.0000   1.0000   1.0000   1.0000   1.0000   1.0000   0.0549
     0.0000   0.0000   0.0000   0.0000   0.0000   0.0000   0.0000   0.0000

          k = 0.6062 0.0000-0.6062 (  5756 PWs)   bands (ev):

   -42.9237 -42.0494 -42.0470  -4.3200   0.7657   1.4989   1.9941   5.0980
     7.4283  10.2094  10.5136  11.6660  11.9994  12.9226  14.5781  15.0106

     occupation numbers 
     1.0000   1.0000   1.0000   1.0000   1.0000   1.0000   1.0000   0.0005
     0.0000   0.0000   0.0000   0.0000   0.0000   0.0000   0.0000   0.0000

          k = 0.0000 0.4041 0.2021 (  5770 PWs)   bands (ev):

   -42.9239 -42.0502 -42.0462  -4.6773   1.2378   2.0825   2.9123   6.2762
     7.3588   7.7226   9.3695   9.3733  11.5843  12.6585  13.3192  14.5876

     occupation numbers 
     1.0000   1.0000   1.0000   1.0000   1.0000   1.0000   1.0000   0.0000
     0.0000   0.0000   0.0000   0.0000   0.0000   0.0000   0.0000   0.0000

          k = 0.6062-0.2021-0.4041 (  5762 PWs)   bands (ev):

   -42.9238 -42.0489 -42.0475  -4.4610   0.6726   1.8117   2.4831   6.5152
     6.9668   8.9058   9.2161  10.7886  10.9620  12.4837  13.9578  14.8212

     occupation numbers 
     1.0000   1.0000   1.0000   1.0000   1.0000   1.0000   1.0000   0.0000
     0.0000   0.0000   0.0000   0.0000   0.0000   0.0000   0.0000   0.0000

          k = 0.7072-0.1010-0.5051 (  5742 PWs)   bands (ev):

   -42.9237 -42.0493 -42.0471  -4.3663   0.8775   1.6317   1.8191   5.6843
     7.7427   8.6395  10.8202  11.1824  11.6864  13.3572  13.6988  14.5988

     occupation numbers 
     1.0000   1.0000   1.0000   1.0000   1.0000   1.0000   1.0000   0.0000
     0.0000   0.0000   0.0000   0.0000   0.0000   0.0000   0.0000   0.0000

          k = 0.6062 0.0000-0.4041 (  5750 PWs)   bands (ev):

   -42.9237 -42.0484 -42.0480  -4.3358   1.0463   1.1026   1.9336   6.3386
     7.8062   8.9268   9.5366  10.8678  11.4625  12.9315  14.0224  14.7724

     occupation numbers 
     1.0000   1.0000   1.0000   1.0000   1.0000   1.0000   1.0000   0.0000
     0.0000   0.0000   0.0000   0.0000   0.0000   0.0000   0.0000   0.0000

     the Fermi energy is     4.5781 ev

     WARNING: integrated charge=    14.00404586, expected=    14.00000000

!    total energy              =     -64.62168039 Ry
     estimated scf accuracy    <          3.0E-09 Ry
     smearing contrib. (-TS)   =       0.00006738 Ry
     internal energy E=F+TS    =     -64.62174776 Ry

     The total energy is F=E-TS. E is the sum of the following terms:
     one-electron contribution =     -23.43711790 Ry
     hartree contribution      =      11.68246496 Ry
     xc contribution           =     -23.20970886 Ry
     ewald contribution        =     -29.65738596 Ry

     convergence has been achieved in   3 iterations

     Forces acting on atoms (cartesian axes, Ry/au):

     atom    1 type  1   force =    -0.00000000    0.00000000    0.00000000
     atom    2 type  1   force =     0.00000000    0.00000000    0.00000000
     atom    3 type  1   force =    -0.00000000    0.00000000   -0.00000000
     atom    4 type  2   force =     0.00000000    0.00000000    0.00000000
     The non-local contrib.  to forces
     atom    1 type  1   force =     0.00000000   -0.00000000   -0.00000000
     atom    2 type  1   force =    -0.00000000    0.00000000    0.00000000
     atom    3 type  1   force =     0.00000000   -0.00000000   -0.00000000
     atom    4 type  2   force =     0.00000000    0.00000000    0.00000000
     The ionic contribution  to forces
     atom    1 type  1   force =    -0.00000000   -0.00000000   -0.00000000
     atom    2 type  1   force =    -0.00000000   -0.00000000   -0.00000000
     atom    3 type  1   force =     0.00000000    0.00000000    0.00000000
     atom    4 type  2   force =     0.00000000    0.00000000    0.00000000
     The local contribution  to forces
     atom    1 type  1   force =    -0.00000000   -0.00000000   -0.00000000
     atom    2 type  1   force =    -0.00000000   -0.00000000   -0.00000000
     atom    3 type  1   force =    -0.00000000   -0.00000000   -0.00000000
     atom    4 type  2   force =    -0.00000000   -0.00000000   -0.00000000
     The core correction contribution to forces
     atom    1 type  1   force =     0.00000000    0.00000000    0.00000000
     atom    2 type  1   force =     0.00000000    0.00000000    0.00000000
     atom    3 type  1   force =     0.00000000    0.00000000    0.00000000
     atom    4 type  2   force =    -0.00000000   -0.00000000   -0.00000000
     The Hubbard contrib.    to forces
     atom    1 type  1   force =     0.00000000    0.00000000    0.00000000
     atom    2 type  1   force =     0.00000000    0.00000000    0.00000000
     atom    3 type  1   force =     0.00000000    0.00000000    0.00000000
     atom    4 type  2   force =     0.00000000    0.00000000    0.00000000
     The SCF correction term to forces
     atom    1 type  1   force =     0.00000000    0.00000000   -0.00000000
     atom    2 type  1   force =     0.00000000    0.00000000    0.00000000
     atom    3 type  1   force =     0.00000000   -0.00000000   -0.00000000
     atom    4 type  2   force =    -0.00000000    0.00000000   -0.00000000

     Total force =     0.000000     Total SCF correction =     0.000000


     Computing stress (Cartesian axis) and pressure

          total   stress  (Ry/bohr**3)                   (kbar)     P=       -0.47
  -0.00000321   0.00000000  -0.00000000           -0.47        0.00       -0.00
   0.00000000  -0.00000321  -0.00000000            0.00       -0.47       -0.00
  -0.00000000  -0.00000000  -0.00000321           -0.00       -0.00       -0.47

     kinetic stress (kbar)   2907.21     -0.00     -0.00
                               -0.00   2907.21     -0.00
                               -0.00     -0.00   2907.21

     local   stress (kbar)   -625.12      0.00     -0.00
                                0.00   -625.12      0.00
                               -0.00      0.00   -625.12

     nonloc. stress (kbar)   1142.18      0.00     -0.00
                                0.00   1142.18     -0.00
                               -0.00     -0.00   1142.18

     hartree stress (kbar)   1202.26      0.00     -0.00
                                0.00   1202.26      0.00
                               -0.00      0.00   1202.26

     exc-cor stress (kbar)   1326.10      0.00      0.00
                                0.00   1326.10     -0.00
                                0.00     -0.00   1326.10

     corecor stress (kbar)  -2901.01     -0.00      0.00
                               -0.00  -2901.01     -0.00
                                0.00     -0.00  -2901.01

     ewald   stress (kbar)  -3052.08     -0.00     -0.00
                               -0.00  -3052.08      0.00
                               -0.00      0.00  -3052.08

     hubbard stress (kbar)      0.00      0.00      0.00
                                0.00      0.00      0.00
                                0.00      0.00      0.00

     DFT-D   stress (kbar)      0.00      0.00      0.00
                                0.00      0.00      0.00
                                0.00      0.00      0.00

     XDM     stress (kbar)      0.00      0.00      0.00
                                0.00      0.00      0.00
                                0.00      0.00      0.00

     dft-nl  stress (kbar)      0.00      0.00      0.00
                                0.00      0.00      0.00
                                0.00      0.00      0.00

     TS-vdW  stress (kbar)      0.00      0.00      0.00
                                0.00      0.00      0.00
                                0.00      0.00      0.00


                                0.00      0.00      0.00
                                0.00      0.00      0.00


                                0.00      0.00      0.00

     Energy error            =      3.8E-06 Ry
     Gradient error          =      3.7E-31 Ry/Bohr
     Cell gradient error     =      4.7E-01 kbar

     number of scf cycles    =   2
     number of bfgs steps    =   1

     enthalpy           old  =     -64.6216766077 Ry
     enthalpy           new  =     -64.6216803868 Ry

     CASE: enthalpy          _new < enthalpy          _old

     new trust radius        =       0.0007710144 bohr
     new conv_thr            =            1.0E-10 Ry

     new unit-cell volume =    476.22581 a.u.^3 (    70.56938 Ang^3 )
     density =      3.35506 g/cm^3

CELL_PARAMETERS (angstrom)
   3.279911397   0.000000000   3.279911397
   3.279911397   3.279911397  -0.000000000
   0.000000000   3.279911397   3.279911397

ATOMIC_POSITIONS (crystal)
Li            0.5000000000        0.5000000000        0.5000000000
Li            0.7500000000        0.7500000000        0.7500000000
Li            0.2500000000        0.2500000000        0.2500000000
Sb            0.0000000000        0.0000000000       -0.0000000000



     Writing output data file ./Li3Sb/pwscf.save/
     NEW-OLD atomic charge density approx. for the potential
     extrapolated charge   13.99663, renormalised to   14.00000

     total cpu time spent up to now is       37.3 secs

     Self-consistent Calculation

     iteration #  1     ecut=    80.00 Ry     beta= 0.70
     CG style diagonalization

---- Real-time Memory Report at c_bands before calling an iterative solver
           251 MiB given to the printing process from OS
             0 MiB allocation reported by mallinfo(arena+hblkhd)
          7746 MiB available memory on the node where the printing process lives
------------------
     ethr =  1.00E-06,  avg # of iterations =  2.0

     Threshold (ethr) on eigenvalues was too large:
     Diagonalizing with lowered threshold

     CG style diagonalization

---- Real-time Memory Report at c_bands before calling an iterative solver
           251 MiB given to the printing process from OS
             0 MiB allocation reported by mallinfo(arena+hblkhd)
          7744 MiB available memory on the node where the printing process lives
------------------
     ethr =  1.13E-08,  avg # of iterations =  2.1

     total cpu time spent up to now is       39.2 secs

     WARNING: integrated charge=    14.00283751, expected=    14.00000000

     total energy              =     -64.62167817 Ry
     estimated scf accuracy    <       0.00000154 Ry

     iteration #  2     ecut=    80.00 Ry     beta= 0.70
     CG style diagonalization

---- Real-time Memory Report at c_bands before calling an iterative solver
           251 MiB given to the printing process from OS
             0 MiB allocation reported by mallinfo(arena+hblkhd)
          7743 MiB available memory on the node where the printing process lives
------------------
     ethr =  1.10E-08,  avg # of iterations =  3.2

     total cpu time spent up to now is       40.5 secs

     WARNING: integrated charge=    14.00380491, expected=    14.00000000

     total energy              =     -64.62167692 Ry
     estimated scf accuracy    <       0.00000013 Ry

     iteration #  3     ecut=    80.00 Ry     beta= 0.70
     CG style diagonalization

---- Real-time Memory Report at c_bands before calling an iterative solver
           251 MiB given to the printing process from OS
             0 MiB allocation reported by mallinfo(arena+hblkhd)
          7749 MiB available memory on the node where the printing process lives
------------------
     ethr =  9.35E-10,  avg # of iterations =  4.6

     total cpu time spent up to now is       42.2 secs

     WARNING: integrated charge=    14.00389440, expected=    14.00000000

     total energy              =     -64.62168430 Ry
     estimated scf accuracy    <       0.00000001 Ry

     iteration #  4     ecut=    80.00 Ry     beta= 0.70
     CG style diagonalization

---- Real-time Memory Report at c_bands before calling an iterative solver
           251 MiB given to the printing process from OS
             0 MiB allocation reported by mallinfo(arena+hblkhd)
          7747 MiB available memory on the node where the printing process lives
------------------
     ethr =  1.02E-10,  avg # of iterations =  4.7

     total cpu time spent up to now is       43.9 secs

     WARNING: integrated charge=    14.00392925, expected=    14.00000000

     total energy              =     -64.62168275 Ry
     estimated scf accuracy    <          7.5E-09 Ry

     iteration #  5     ecut=    80.00 Ry     beta= 0.70
     CG style diagonalization

---- Real-time Memory Report at c_bands before calling an iterative solver
           251 MiB given to the printing process from OS
             0 MiB allocation reported by mallinfo(arena+hblkhd)
          7741 MiB available memory on the node where the printing process lives
------------------
     ethr =  5.36E-11,  avg # of iterations =  3.5

     total cpu time spent up to now is       45.3 secs

     WARNING: integrated charge=    14.00405202, expected=    14.00000000

     total energy              =     -64.62168250 Ry
     estimated scf accuracy    <          8.1E-10 Ry

     iteration #  6     ecut=    80.00 Ry     beta= 0.70
     CG style diagonalization

---- Real-time Memory Report at c_bands before calling an iterative solver
           251 MiB given to the printing process from OS
             0 MiB allocation reported by mallinfo(arena+hblkhd)
          7739 MiB available memory on the node where the printing process lives
------------------
     ethr =  5.81E-12,  avg # of iterations =  4.6

     total cpu time spent up to now is       47.0 secs

     WARNING: integrated charge=    14.00404026, expected=    14.00000000

     total energy              =     -64.62168264 Ry
     estimated scf accuracy    <          8.4E-10 Ry

     iteration #  7     ecut=    80.00 Ry     beta= 0.70
     CG style diagonalization

---- Real-time Memory Report at c_bands before calling an iterative solver
           251 MiB given to the printing process from OS
             0 MiB allocation reported by mallinfo(arena+hblkhd)
          7729 MiB available memory on the node where the printing process lives
------------------
     ethr =  5.81E-12,  avg # of iterations =  3.3

     total cpu time spent up to now is       48.4 secs

     End of self-consistent calculation

          k = 0.0000 0.0000 0.0000 (  5769 PWs)   bands (ev):

   -42.9209 -42.0490 -42.0405  -5.2601   4.0163   4.0163   4.0163   6.2789
     6.9812   6.9812   6.9812   9.0307   9.0307   9.0307  11.2098  11.2103

     occupation numbers 
     1.0000   1.0000   1.0000   1.0000   1.0345   1.0345   1.0345   0.0000
     0.0000   0.0000   0.0000   0.0000   0.0000   0.0000   0.0000   0.0000

          k =-0.1010 0.1010 0.1010 (  5775 PWs)   bands (ev):

   -42.9209 -42.0486 -42.0409  -5.1558   2.8135   3.8395   3.8395   6.4963
     7.2578   7.2578   8.0501   8.4678   8.4679   9.4213  12.5002  13.2483

     occupation numbers 
     1.0000   1.0000   1.0000   1.0000   1.0000   1.0046   1.0046   0.0000
     0.0000   0.0000   0.0000   0.0000   0.0000   0.0000   0.0000   0.0000

          k =-0.2021 0.2021 0.2021 (  5762 PWs)   bands (ev):

   -42.9207 -42.0474 -42.0421  -4.8884   1.2786   3.5566   3.5566   6.4085
     6.8070   6.8071   9.2764   9.2764   9.3019  10.9349  14.1091  14.8964

     occupation numbers 
     1.0000   1.0000   1.0000   1.0000   1.0000   1.0000   1.0000   0.0000
     0.0000   0.0000   0.0000   0.0000   0.0000   0.0000   0.0000   0.0000

          k =-0.3031 0.3031 0.3031 (  5738 PWs)   bands (ev):

   -42.9206 -42.0457 -42.0438  -4.6261   0.3381   3.3959   3.3959   6.2997
     6.2997   6.3377   9.8033  11.1242  11.1242  12.6636  13.4873  13.4883

     occupation numbers 
     1.0000   1.0000   1.0000   1.0000   1.0000   1.0000   1.0000   0.0000
     0.0000   0.0000   0.0000   0.0000   0.0000   0.0000   0.0000   0.0000

          k = 0.0000 0.2021 0.0000 (  5785 PWs)   bands (ev):

   -42.9208 -42.0485 -42.0410  -5.1203   3.1280   3.3495   3.3495   6.9884
     7.0283   7.6975   7.8589   7.8589   9.6543   9.6543  11.4772  13.2924

     occupation numbers 
     1.0000   1.0000   1.0000   1.0000   1.0000   1.0000   1.0000   0.0000
     0.0000   0.0000   0.0000   0.0000   0.0000   0.0000   0.0000   0.0000

          k =-0.1010 0.3031 0.1010 (  5784 PWs)   bands (ev):

   -42.9207 -42.0477 -42.0418  -4.9038   1.7595   2.9601   3.2180   6.3981
     7.3790   7.5910   7.9727   9.4255  10.2721  10.8152  13.0534  13.8458

     occupation numbers 
     1.0000   1.0000   1.0000   1.0000   1.0000   1.0000   1.0000   0.0000
     0.0000   0.0000   0.0000   0.0000   0.0000   0.0000   0.0000   0.0000

          k =-0.2021 0.4042 0.2021 (  5754 PWs)   bands (ev):

   -42.9206 -42.0462 -42.0433  -4.6264   0.6597   2.8392   2.8611   6.0728
     7.3297   7.3306   8.9222  10.2439  11.8764  12.6069  13.2530  13.9160

     occupation numbers 
     1.0000   1.0000   1.0000   1.0000   1.0000   1.0000   1.0000   0.0000
     0.0000   0.0000   0.0000   0.0000   0.0000   0.0000   0.0000   0.0000

          k = 0.4042-0.2021-0.4042 (  5751 PWs)   bands (ev):

   -42.9205 -42.0450 -42.0445  -4.5264   0.3491   2.5161   3.0747   6.1167
     6.8843   7.3790  10.2464  10.7813  10.9661  12.1172  14.0933  14.2271

     occupation numbers 
     1.0000   1.0000   1.0000   1.0000   1.0000   1.0000   1.0000   0.0000
     0.0000   0.0000   0.0000   0.0000   0.0000   0.0000   0.0000   0.0000

          k = 0.3031-0.1010-0.3031 (  5757 PWs)   bands (ev):

   -42.9206 -42.0467 -42.0428  -4.7168   0.9572   2.4558   3.5204   6.3828
     6.8711   7.6235   8.8006   9.4232  10.9041  12.4433  13.3484  14.6645

     occupation numbers 
     1.0000   1.0000   1.0000   1.0000   1.0000   1.0000   1.0000   0.0000
     0.0000   0.0000   0.0000   0.0000   0.0000   0.0000   0.0000   0.0000

          k = 0.2021-0.0000-0.2021 (  5779 PWs)   bands (ev):

   -42.9208 -42.0479 -42.0415  -4.9950   2.0765   2.8491   3.9329   6.6147
     7.3622   7.5211   7.9977   8.1341  10.0916  10.2100  12.9252  13.6418

     occupation numbers 
     1.0000   1.0000   1.0000   1.0000   1.0000   1.0000   1.0150   0.0000
     0.0000   0.0000   0.0000   0.0000   0.0000   0.0000   0.0000   0.0000

          k = 0.0000 0.4042 0.0000 (  5750 PWs)   bands (ev):

[...]
          7632 MiB available memory on the node where the printing process lives
------------------
     ethr =  8.75E-13,  avg # of iterations =  3.0

     total cpu time spent up to now is      140.5 secs

     WARNING: integrated charge=    14.00402572, expected=    14.00000000

     total energy              =     -64.62168856 Ry
     estimated scf accuracy    <          1.4E-10 Ry

     iteration # 22     ecut=    80.00 Ry     beta= 0.70
     CG style diagonalization

---- Real-time Memory Report at c_bands before calling an iterative solver
           258 MiB given to the printing process from OS
             0 MiB allocation reported by mallinfo(arena+hblkhd)
          7631 MiB available memory on the node where the printing process lives
------------------
     ethr =  8.75E-13,  avg # of iterations =  3.0

     total cpu time spent up to now is      141.8 secs

     WARNING: integrated charge=    14.00402581, expected=    14.00000000

     total energy              =     -64.62168856 Ry
     estimated scf accuracy    <          1.5E-10 Ry

     iteration # 23     ecut=    80.00 Ry     beta= 0.70
     CG style diagonalization

---- Real-time Memory Report at c_bands before calling an iterative solver
           258 MiB given to the printing process from OS
             0 MiB allocation reported by mallinfo(arena+hblkhd)
          7638 MiB available memory on the node where the printing process lives
------------------
     ethr =  8.75E-13,  avg # of iterations =  3.0

     total cpu time spent up to now is      143.0 secs

     WARNING: integrated charge=    14.00402588, expected=    14.00000000

     total energy              =     -64.62168854 Ry
     estimated scf accuracy    <          1.4E-10 Ry

     iteration # 24     ecut=    80.00 Ry     beta= 0.70
     CG style diagonalization

---- Real-time Memory Report at c_bands before calling an iterative solver
           258 MiB given to the printing process from OS
             0 MiB allocation reported by mallinfo(arena+hblkhd)
          7635 MiB available memory on the node where the printing process lives
------------------
     ethr =  8.75E-13,  avg # of iterations =  3.0

     total cpu time spent up to now is      144.2 secs

     WARNING: integrated charge=    14.00402590, expected=    14.00000000

     total energy              =     -64.62168852 Ry
     estimated scf accuracy    <          1.1E-10 Ry

     iteration # 25     ecut=    80.00 Ry     beta= 0.70
     CG style diagonalization

---- Real-time Memory Report at c_bands before calling an iterative solver
           258 MiB given to the printing process from OS
             0 MiB allocation reported by mallinfo(arena+hblkhd)
          7632 MiB available memory on the node where the printing process lives
------------------
     ethr =  7.74E-13,  avg # of iterations =  3.0

     total cpu time spent up to now is      145.4 secs

     End of self-consistent calculation

          k = 0.0000 0.0000 0.0000 (  5769 PWs)   bands (ev):

   -42.9108 -42.0391 -42.0306  -5.2555   4.0251   4.0251   4.0251   6.2951
     6.9897   6.9897   6.9897   9.0414   9.0414   9.0414  11.2215  13.0507

     occupation numbers 
     1.0000   1.0000   1.0000   1.0000   1.0345   1.0345   1.0345   0.0000
     0.0000   0.0000   0.0000   0.0000   0.0000   0.0000   0.0000   0.0000

          k =-0.1011 0.1011 0.1011 (  5769 PWs)   bands (ev):

   -42.9107 -42.0387 -42.0310  -5.1511   2.8213   3.8479   3.8479   6.5098
     7.2669   7.2669   8.0629   8.4777   8.4777   9.4323  12.5129  13.2651

     occupation numbers 
     1.0000   1.0000   1.0000   1.0000   1.0000   1.0045   1.0045   0.0000
     0.0000   0.0000   0.0000   0.0000   0.0000   0.0000   0.0000   0.0000

          k =-0.2022 0.2022 0.2022 (  5738 PWs)   bands (ev):

   -42.9105 -42.0375 -42.0321  -4.8833   1.2848   3.5646   3.5646   6.4211
     6.8158   6.8158   9.2871   9.2871   9.3157  10.9496  14.1252  14.9109

     occupation numbers 
     1.0000   1.0000   1.0000   1.0000   1.0000   1.0000   1.0000   0.0000
     0.0000   0.0000   0.0000   0.0000   0.0000   0.0000   0.0000   0.0000

          k =-0.3033 0.3033 0.3033 (  5717 PWs)   bands (ev):

   -42.9104 -42.0358 -42.0339  -4.6204   0.3430   3.4037   3.4037   6.3079
     6.3079   6.3501   9.8178  11.1366  11.1366  12.6807  13.5018  13.5018

     occupation numbers 
     1.0000   1.0000   1.0000   1.0000   1.0000   1.0000   1.0000   0.0000
     0.0000   0.0000   0.0000   0.0000   0.0000   0.0000   0.0000   0.0000

          k = 0.0000 0.2022-0.0000 (  5777 PWs)   bands (ev):

   -42.9107 -42.0386 -42.0311  -5.1155   3.1369   3.3571   3.3571   6.9973
     7.0409   7.7100   7.8692   7.8692   9.6652   9.6652  11.4890  13.3091

     occupation numbers 
     1.0000   1.0000   1.0000   1.0000   1.0000   1.0000   1.0000   0.0000
     0.0000   0.0000   0.0000   0.0000   0.0000   0.0000   0.0000   0.0000

          k =-0.1011 0.3033 0.1011 (  5776 PWs)   bands (ev):

   -42.9105 -42.0378 -42.0319  -4.8987   1.7663   2.9671   3.2259   6.4077
     7.3901   7.6019   7.9832   9.4392  10.2835  10.8282  13.0667  13.8620

     occupation numbers 
     1.0000   1.0000   1.0000   1.0000   1.0000   1.0000   1.0000   0.0000
     0.0000   0.0000   0.0000   0.0000   0.0000   0.0000   0.0000   0.0000

          k =-0.2022 0.4043 0.2022 (  5743 PWs)   bands (ev):

   -42.9104 -42.0364 -42.0334  -4.6207   0.6650   2.8466   2.8680   6.0821
     7.3393   7.3427   8.9336  10.2576  11.8895  12.6233  13.2672  13.9331

     occupation numbers 
     1.0000   1.0000   1.0000   1.0000   1.0000   1.0000   1.0000   0.0000
     0.0000   0.0000   0.0000   0.0000   0.0000   0.0000   0.0000   0.0000

          k = 0.4043-0.2022-0.4043 (  5751 PWs)   bands (ev):

   -42.9104 -42.0351 -42.0346  -4.5205   0.3540   2.5229   3.0819   6.1263
     6.8933   7.3912  10.2606  10.7934  10.9791  12.1320  14.1076  14.2430

     occupation numbers 
     1.0000   1.0000   1.0000   1.0000   1.0000   1.0000   1.0000   0.0000
     0.0000   0.0000   0.0000   0.0000   0.0000   0.0000   0.0000   0.0000

          k = 0.3033-0.1011-0.3033 (  5735 PWs)   bands (ev):

   -42.9105 -42.0368 -42.0329  -4.7113   0.9630   2.4625   3.5283   6.3932
     6.8799   7.6357   8.8108   9.4368  10.9168  12.4587  13.3636  14.6791

     occupation numbers 
     1.0000   1.0000   1.0000   1.0000   1.0000   1.0000   1.0000   0.0000
     0.0000   0.0000   0.0000   0.0000   0.0000   0.0000   0.0000   0.0000

          k = 0.2022-0.0000-0.2022 (  5779 PWs)   bands (ev):

   -42.9106 -42.0381 -42.0316  -4.9900   2.0837   2.8560   3.9415   6.6263
     7.3713   7.5301   8.0105   8.1455  10.1031  10.2227  12.9386  13.6581

     occupation numbers 
     1.0000   1.0000   1.0000   1.0000   1.0000   1.0000   1.0150   0.0000
     0.0000   0.0000   0.0000   0.0000   0.0000   0.0000   0.0000   0.0000

          k = 0.0000 0.4043-0.0000 (  5746 PWs)   bands (ev):

   -42.9105 -42.0375 -42.0322  -4.7489   1.7970   2.4511   2.4511   5.5788
     7.0127   9.1904   9.1904   9.7077  11.7265  11.7266  12.2898  14.0014

     occupation numbers 
     1.0000   1.0000   1.0000   1.0000   1.0000   1.0000   1.0000   0.0000
     0.0000   0.0000   0.0000   0.0000   0.0000   0.0000   0.0000   0.0000

          k =-0.1011 0.5054 0.1011 (  5730 PWs)   bands (ev):

   -42.9104 -42.0366 -42.0331  -4.5169   1.0447   2.0272   2.2556   5.4292
     7.4504   9.1125   9.2403  11.1253  12.9593  13.1676  13.3884  13.7506

     occupation numbers 
     1.0000   1.0000   1.0000   1.0000   1.0000   1.0000   1.0000   0.0000
     0.0000   0.0000   0.0000   0.0000   0.0000   0.0000   0.0000   0.0000

          k = 0.5054-0.1011-0.5054 (  5749 PWs)   bands (ev):

   -42.9103 -42.0354 -42.0343  -4.3829   0.7029   1.5048   2.4239   5.6904
     8.5319   8.7588   9.1886  10.8949  11.2536  12.4012  14.3697  15.0202

     occupation numbers 
     1.0000   1.0000   1.0000   1.0000   1.0000   1.0000   1.0000   0.0000
     0.0000   0.0000   0.0000   0.0000   0.0000   0.0000   0.0000   0.0000

          k = 0.4043 0.0000-0.4043 (  5764 PWs)   bands (ev):

   -42.9103 -42.0357 -42.0341  -4.4826   0.8450   1.4865   2.9186   6.0388
     7.9005   8.7963   9.1395   9.9785  10.8644  11.8569  14.7280  15.2266

     occupation numbers 
     1.0000   1.0000   1.0000   1.0000   1.0000   1.0000   1.0000   0.0000
     0.0000   0.0000   0.0000   0.0000   0.0000   0.0000   0.0000   0.0000

          k = 0.0000 0.6065-0.0000 (  5758 PWs)   bands (ev):

   -42.9103 -42.0366 -42.0332  -4.3744   0.8283   1.9428   1.9428   4.8134
     7.0234  10.5932  10.5932  12.1144  13.1752  13.1752  13.5983  14.7417

     occupation numbers 
     1.0000   1.0000   1.0000   1.0000   1.0000   1.0000   1.0000   0.0546
     0.0000   0.0000   0.0000   0.0000   0.0000   0.0000   0.0000   0.0000

          k = 0.6065 0.0000-0.6065 (  5742 PWs)   bands (ev):

   -42.9103 -42.0361 -42.0336  -4.3107   0.7732   1.5069   2.0025   5.1117
     7.4436  10.2288  10.5349  11.6839  12.0223  12.9450  14.5999  15.0381

     occupation numbers 
     1.0000   1.0000   1.0000   1.0000   1.0000   1.0000   1.0000   0.0005
     0.0000   0.0000   0.0000   0.0000   0.0000   0.0000   0.0000   0.0000

          k = 0.0000 0.4043 0.2022 (  5742 PWs)   bands (ev):

   -42.9104 -42.0369 -42.0328  -4.6692   1.2468   2.0913   2.9227   6.2904
     7.3746   7.7369   9.3876   9.3931  11.6030  12.6798  13.3403  14.0111

     occupation numbers 
     1.0000   1.0000   1.0000   1.0000   1.0000   1.0000   1.0000   0.0000
     0.0000   0.0000   0.0000   0.0000   0.0000   0.0000   0.0000   0.0000

          k = 0.6065-0.2022-0.4043 (  5750 PWs)   bands (ev):

   -42.9103 -42.0356 -42.0341  -4.4522   0.6801   1.8205   2.4925   6.5298
     6.9820   8.9219   9.2351  10.8096  10.9807  12.5043  13.9807  14.8444

     occupation numbers 
     1.0000   1.0000   1.0000   1.0000   1.0000   1.0000   1.0000   0.0000
     0.0000   0.0000   0.0000   0.0000   0.0000   0.0000   0.0000   0.0000

          k = 0.7076-0.1011-0.5054 (  5714 PWs)   bands (ev):

   -42.9103 -42.0360 -42.0338  -4.3571   0.8853   1.6398   1.8275   5.6983
     7.7580   8.6571  10.8407  11.2013  11.7094  13.3785  13.7197  14.6224

     occupation numbers 
     1.0000   1.0000   1.0000   1.0000   1.0000   1.0000   1.0000   0.0000
     0.0000   0.0000   0.0000   0.0000   0.0000   0.0000   0.0000   0.0000

          k = 0.6065 0.0000-0.4043 (  5740 PWs)   bands (ev):

   -42.9103 -42.0351 -42.0347  -4.3265   1.0539   1.1104   1.9422   6.3533
     7.8231   8.9434   9.5532  10.8894  11.4842  12.9520  14.0445  14.7973

     occupation numbers 
     1.0000   1.0000   1.0000   1.0000   1.0000   1.0000   1.0000   0.0000
     0.0000   0.0000   0.0000   0.0000   0.0000   0.0000   0.0000   0.0000

     the Fermi energy is     4.5911 ev

     WARNING: integrated charge=    14.00402589, expected=    14.00000000

!    total energy              =     -64.62168851 Ry
     estimated scf accuracy    <          3.7E-13 Ry
     smearing contrib. (-TS)   =       0.00006704 Ry
     internal energy E=F+TS    =     -64.62175555 Ry

     The total energy is F=E-TS. E is the sum of the following terms:
     one-electron contribution =     -23.41341464 Ry
     hartree contribution      =      11.67721535 Ry
     xc contribution           =     -23.21119455 Ry
     ewald contribution        =     -29.67436171 Ry

     convergence has been achieved in  25 iterations

     Forces acting on atoms (cartesian axes, Ry/au):

     atom    1 type  1   force =     0.00000000   -0.00000000   -0.00000000
     atom    2 type  1   force =    -0.00000000    0.00000000   -0.00000000
     atom    3 type  1   force =     0.00000000   -0.00000000    0.00000000
     atom    4 type  2   force =    -0.00000000    0.00000000   -0.00000000
     The non-local contrib.  to forces
     atom    1 type  1   force =     0.00000000    0.00000000    0.00000000
     atom    2 type  1   force =     0.00000000   -0.00000000   -0.00000000
     atom    3 type  1   force =    -0.00000000   -0.00000000    0.00000000
     atom    4 type  2   force =     0.00000000    0.00000000    0.00000000
     The ionic contribution  to forces
     atom    1 type  1   force =     0.00000000    0.00000000   -0.00000000
     atom    2 type  1   force =    -0.00000000   -0.00000000   -0.00000000
     atom    3 type  1   force =     0.00000000   -0.00000000    0.00000000
     atom    4 type  2   force =     0.00000000    0.00000000    0.00000000
     The local contribution  to forces
     atom    1 type  1   force =    -0.00000000   -0.00000000   -0.00000000
     atom    2 type  1   force =    -0.00000000   -0.00000000   -0.00000000
     atom    3 type  1   force =    -0.00000000   -0.00000000   -0.00000000
     atom    4 type  2   force =    -0.00000000   -0.00000000    0.00000000
     The core correction contribution to forces
     atom    1 type  1   force =     0.00000000    0.00000000    0.00000000
     atom    2 type  1   force =     0.00000000    0.00000000    0.00000000
     atom    3 type  1   force =     0.00000000    0.00000000    0.00000000
     atom    4 type  2   force =    -0.00000000   -0.00000000   -0.00000000
     The Hubbard contrib.    to forces
     atom    1 type  1   force =     0.00000000    0.00000000    0.00000000
     atom    2 type  1   force =     0.00000000    0.00000000    0.00000000
     atom    3 type  1   force =     0.00000000    0.00000000    0.00000000
     atom    4 type  2   force =     0.00000000    0.00000000    0.00000000
     The SCF correction term to forces
     atom    1 type  1   force =     0.00000000   -0.00000000    0.00000000
     atom    2 type  1   force =     0.00000000   -0.00000000    0.00000000
     atom    3 type  1   force =    -0.00000000    0.00000000    0.00000000
     atom    4 type  2   force =     0.00000000    0.00000000   -0.00000000

     Total force =     0.000000     Total SCF correction =     0.000000


     Computing stress (Cartesian axis) and pressure

          total   stress  (Ry/bohr**3)                   (kbar)     P=       -0.00
  -0.00000003  -0.00000000   0.00000000           -0.00       -0.00        0.00
  -0.00000000  -0.00000003  -0.00000000           -0.00       -0.00       -0.00
  -0.00000000  -0.00000000  -0.00000003           -0.00       -0.00       -0.00

     kinetic stress (kbar)   2913.35     -0.00     -0.00
                                0.00   2913.35     -0.00
                               -0.00      0.00   2913.35

     local   stress (kbar)   -624.09      0.00      0.00
                                0.00   -624.09      0.00
                                0.00      0.00   -624.09

     nonloc. stress (kbar)   1143.81      0.00     -0.00
                                0.00   1143.81      0.00
                               -0.00      0.00   1143.81

     hartree stress (kbar)   1203.78      0.00     -0.00
                                0.00   1203.78      0.00
                               -0.00      0.00   1203.78

     exc-cor stress (kbar)   1328.26     -0.00     -0.00
                               -0.00   1328.26      0.00
                               -0.00      0.00   1328.26

     corecor stress (kbar)  -2906.04      0.00     -0.00
                                0.00  -2906.04     -0.00
                               -0.00     -0.00  -2906.04

     ewald   stress (kbar)  -3059.08     -0.00      0.00
                               -0.00  -3059.08     -0.00
                                0.00     -0.00  -3059.08

     hubbard stress (kbar)      0.00      0.00      0.00
                                0.00      0.00      0.00
                                0.00      0.00      0.00

     DFT-D   stress (kbar)      0.00      0.00      0.00
                                0.00      0.00      0.00
                                0.00      0.00      0.00

     XDM     stress (kbar)      0.00      0.00      0.00
                                0.00      0.00      0.00
                                0.00      0.00      0.00

     dft-nl  stress (kbar)      0.00      0.00      0.00
                                0.00      0.00      0.00
                                0.00      0.00      0.00

     TS-vdW  stress (kbar)      0.00      0.00      0.00
                                0.00      0.00      0.00
                                0.00      0.00      0.00


                                0.00      0.00      0.00
                                0.00      0.00      0.00


                                0.00      0.00      0.00


     Writing output data file ./Li3Sb/pwscf.save/
 
     init_run     :      2.50s CPU      2.68s WALL (       2 calls)
     electrons    :    114.14s CPU    121.78s WALL (       7 calls)
     update_pot   :      5.01s CPU      5.04s WALL (       5 calls)
     forces       :      5.10s CPU      5.37s WALL (       7 calls)
     stress       :     11.35s CPU     12.16s WALL (       7 calls)

     Called by init_run:
     wfcinit      :      0.47s CPU      0.47s WALL (       2 calls)
     wfcinit:atom :      0.01s CPU      0.01s WALL (      40 calls)
     wfcinit:wfcr :      0.41s CPU      0.41s WALL (      40 calls)
     potinit      :      0.67s CPU      0.69s WALL (       2 calls)
     hinit0       :      1.12s CPU      1.17s WALL (       2 calls)

     Called by electrons:
     c_bands      :     85.01s CPU     86.74s WALL (      80 calls)
     sum_band     :     16.25s CPU     19.48s WALL (      80 calls)
     v_of_rho     :      5.19s CPU      5.38s WALL (      81 calls)
     v_h          :      0.35s CPU      0.37s WALL (      81 calls)
     v_xc         :      5.67s CPU      5.87s WALL (      95 calls)
     newd         :      7.35s CPU     10.04s WALL (      81 calls)
     mix_rho      :      0.86s CPU      0.89s WALL (      80 calls)

     Called by c_bands:
     init_us_2    :      1.46s CPU      1.49s WALL (    3520 calls)
     ccgdiagg     :     71.93s CPU     73.47s WALL (    1600 calls)
     wfcrot       :     12.04s CPU     12.20s WALL (    1380 calls)

     Called by sum_band:
     sum_band:wei :      0.07s CPU      0.07s WALL (      80 calls)
     sum_band:loo :      7.62s CPU      7.71s WALL (      80 calls)
     sum_band:buf :      0.29s CPU      0.30s WALL (    1600 calls)
     sum_band:ini :      0.74s CPU      0.75s WALL (    1600 calls)
     sum_band:cal :      0.78s CPU      0.79s WALL (    1600 calls)
     sum_band:bec :      0.02s CPU      0.03s WALL (    1600 calls)
     addusdens    :      7.88s CPU     10.91s WALL (      80 calls)
     addusd:skk   :      0.12s CPU      0.12s WALL (     160 calls)
     addusd:dgemm :      1.55s CPU      4.06s WALL (     160 calls)
     addusd:qvan2 :      5.75s CPU      5.82s WALL (     160 calls)

     Called by *cgdiagg:
     h_psi        :     64.18s CPU     65.44s WALL (   80174 calls)
     s_psi        :      6.48s CPU      6.64s WALL (  158968 calls)

     Called by h_psi:
     h_psi:calbec :     10.03s CPU     10.23s WALL (   80174 calls)
     vloc_psi     :     46.35s CPU     47.26s WALL (   80174 calls)
     add_vuspsi   :      7.05s CPU      7.21s WALL (   80174 calls)
     hs_1psi      :     57.90s CPU     59.12s WALL (   78794 calls)
     s_1psi       :      6.36s CPU      6.51s WALL (   78794 calls)

     General routines
     calbec       :     14.39s CPU     14.72s WALL (  161268 calls)
     fft          :      2.78s CPU      3.08s WALL (    1225 calls)
     ffts         :      0.08s CPU      0.08s WALL (     161 calls)
     fftw         :     40.33s CPU     41.04s WALL (  227588 calls)
     interpolate  :      0.31s CPU      0.34s WALL (      81 calls)
 
     Parallel routines
 
     PWSCF        :   2m18.80s CPU   2m27.95s WALL

 
   This run was terminated on:   6:35: 5  26Nov2021            

=------------------------------------------------------------------------------=
   JOB DONE.
=------------------------------------------------------------------------------=
